G5 dendrimer PPI
 2062 
    1PPI    N13    1   0.336   4.001   0.039 
    2PPI    N13    4   0.513   4.092   0.468 
    3PPI    N23    7   0.003   3.718  -0.054 
    4PPI    N33   10   0.348   4.331  -0.313 
    5PPI    N43   13   0.416   4.360   0.834 
    6PPI    N53   16   0.955   4.111   0.552 
    7PPI    N63   19  -0.378   3.616  -0.311 
    8PPI    N73   22  -0.157   3.452   0.254 
    9PPI    N83   25  -0.025   4.470  -0.483 
   10PPI    N93   28   0.646   4.191  -0.602 
   11PPI   N103   31   0.253   4.240   1.257 
   12PPI   N113   34   0.329   4.727   0.601 
   13PPI   N123   37   1.240   3.769   0.475 
   14PPI   N133   40   1.298   4.364   0.417 
   15PPI   N143   43  -0.528   3.951  -0.580 
   16PPI   N153   46  -0.624   3.431   0.029 
   17PPI   N163   49   0.113   3.310   0.503 
   18PPI   N173   52  -0.444   3.384   0.574 
   19PPI   N183   55  -0.285   4.517  -0.100 
   20PPI   N193   58  -0.243   4.382  -0.833 
   21PPI   N203   61   0.592   3.764  -0.768 
   22PPI   N213   64   0.408   4.522  -0.782 
   23PPI   N223   67   0.099   4.615   1.289 
   24PPI   N233   70  -0.187   4.070   1.280 
   25PPI   N243   73   0.031   5.020   0.704 
   26PPI   N253   76   0.485   5.104   0.679 
   27PPI   N263   79   1.467   3.977   0.833 
   28PPI   N273   82   1.134   3.450   0.705 
   29PPI   N283   85   1.408   4.782   0.584 
   30PPI   N293   88   1.719   4.354   0.185 
   31PPI   N303   91  -0.951   3.797  -0.535 
   32PPI   N313   94  -0.481   3.741  -1.021 
   33PPI   N323   97  -0.358   3.085  -0.008 
   34PPI   N333  100  -0.836   3.354  -0.358 
   35PPI   N343  103   0.233   3.626   0.722 
   36PPI   N353  106  -0.019   2.832   0.537 
   37PPI   N363  109  -0.461   3.842   0.619 
   38PPI   N373  112  -0.166   3.322   0.943 
   39PPI   N383  115  -0.115   4.264   0.194 
   40PPI   N393  118  -0.709   4.484  -0.251 
   41PPI   N403  121  -0.093   3.997  -0.771 
   42PPI   N413  124  -0.229   4.753  -1.115 
   43PPI   N423  127   0.749   3.347  -0.556 
   44PPI   N433  130   1.022   3.778  -0.821 
   45PPI   N443  133   0.693   4.504  -1.138 
   46PPI   N453  136   0.241   4.194  -1.012 
   47PPI   N463  139   0.522   4.656   1.323 
   48PPI   N473  142   0.131   4.767   1.753 
   49PPI   N483  145  -0.085   3.702   1.535 
   50PPI   N493  148  -0.298   4.485   1.468 
   51PPI   N503  151   0.154   5.274   1.045 
   52PPI   N513  154  -0.031   5.077   0.266 
   53PPI   N523  157   0.249   5.508   0.607 
   54PPI   N533  160   0.712   5.229   0.321 
   55PPI   N543  163   1.705   3.790   0.502 
   56PPI   N553  166   1.545   3.744   1.219 
   57PPI   N563  169   1.114   3.626   1.137 
   58PPI   N573  172   1.485   3.210   0.791 
   59PPI   N583  175   1.853   4.926   0.467 
   60PPI   N593  178   1.478   4.965   1.007 
   61PPI   N603  181   1.300   4.398  -0.061 
   62PPI   N613  184   1.790   4.357  -0.270 
   63PPI    NH2  187  -1.006   4.062  -0.807 
   64PPI    NH2  190  -0.993   3.590  -0.915 
   65PPI    NH2  193  -0.826   3.852  -1.162 
   66PPI    NH2  196  -0.455   3.403  -0.894 
   67PPI    NH2  199  -0.054   3.248  -0.209 
   68PPI    NH2  202  -0.674   2.886  -0.041 
   69PPI    NH2  205  -1.211   3.374  -0.190 
   70PPI    NH2  208  -1.011   2.973  -0.346 
   71PPI    NH2  211   0.306   3.965   0.870 
   72PPI    NH2  214   0.410   3.358   0.971 
   73PPI    NH2  217  -0.126   2.684   0.169 
   74PPI    NH2  220  -0.350   2.636   0.597 
   75PPI    NH2  223  -0.740   3.971   0.897 
   76PPI    NH2  226  -0.833   3.892   0.382 
   77PPI    NH2  229  -0.136   3.684   1.063 
   78PPI    NH2  232  -0.184   2.962   0.911 
   79PPI    NH2  235  -0.417   4.229   0.510 
   80PPI    NH2  238  -0.123   3.884   0.409 
   81PPI    NH2  241  -0.710   4.409  -0.636 
   82PPI    NH2  244  -0.701   4.097  -0.195 
   83PPI    NH2  247   0.219   3.971  -0.581 
   84PPI    NH2  250  -0.173   3.976  -0.340 
   85PPI    NH2  253   0.010   4.964  -0.857 
   86PPI    NH2  256  -0.534   4.894  -0.959 
   87PPI    NH2  259   0.457   3.251  -0.809 
   88PPI    NH2  262   0.928   3.142  -0.844 
   89PPI    NH2  265   1.140   3.519  -0.579 
   90PPI    NH2  268   1.177   4.129  -0.639 
   91PPI    NH2  271   0.924   4.186  -1.129 
   92PPI    NH2  274   0.448   4.518  -1.446 
   93PPI    NH2  277   0.499   3.923  -1.208 
   94PPI    NH2  280   0.069   4.449  -1.229 
   95PPI    NH2  283   0.520   4.467   1.693 
   96PPI    NH2  286   0.564   4.786   0.982 
   97PPI    NH2  289   0.129   5.181   1.807 
   98PPI    NH2  292  -0.215   4.672   1.836 
   99PPI    NH2  295  -0.269   3.722   1.874 
  100PPI    NH2  298  -0.354   3.450   1.323 
  101PPI    NH2  301  -0.621   4.299   1.378 
  102PPI    NH2  304  -0.489   4.767   1.348 
  103PPI    NH2  307   0.424   5.532   1.180 
  104PPI    NH2  310   0.222   5.083   1.385 
  105PPI    NH2  313   0.307   5.077   0.055 
  106PPI    NH2  316  -0.315   5.392   0.229 
  107PPI    NH2  319   0.480   5.772   0.463 
  108PPI    NH2  322   0.113   5.643   0.282 
  109PPI    NH2  325   0.967   5.497   0.377 
  110PPI    NH2  328   0.766   4.987   0.043 
  111PPI    NH2  331   1.861   3.911   0.171 
  112PPI    NH2  334   2.085   3.683   0.522 
  113PPI    NH2  337   1.831   3.982   1.164 
  114PPI    NH2  340   1.568   3.952   1.529 
  115PPI    NH2  343   1.094   3.961   0.983 
  116PPI    NH2  346   0.824   3.874   1.260 
  117PPI    NH2  349   1.680   2.915   0.569 
  118PPI    NH2  352   1.264   3.047   1.108 
  119PPI    NH2  355   2.186   5.000   0.691 
  120PPI    NH2  358   2.001   4.559   0.492 
  121PPI    NH2  361   1.596   4.666   1.204 
  122PPI    NH2  364   1.758   5.194   0.952 
  123PPI    NH2  367   1.030   4.141   0.104 
  124PPI    NH2  370   1.112   4.701   0.161 
  125PPI    NH2  373   1.708   4.081  -0.475 
  126PPI    NH2  376   2.174   4.489  -0.264 
  127WNA     WN  379   5.737   0.017   5.453 
  128WNA     WN  381   5.886   4.580   3.664 
  129WNA     WN  383   0.724   1.404   5.602 
  130WNA     WN  385   4.037   3.949   1.426 
  131WNA     WN  387   4.047   0.631   0.506 
  132WNA     WN  389   4.474   1.434   2.911 
  133WNA     WN  391   5.459   1.279   1.483 
  134WNA     WN  393   3.722   3.225   4.210 
  135WNA     WN  395   5.543   2.356   4.007 
  136WNA     WN  397   3.436   1.297   5.409 
  137WNA     WN  399   0.469   1.571   3.270 
  138WNA     WN  401   4.086   4.275   1.052 
  139WNA     WN  403   0.837   0.484   1.022 
  140WNA     WN  405   5.481   2.188   5.528 
  141WNA     WN  407   2.766   6.140   2.589 
  142WNA     WN  409   0.116   1.226   4.396 
  143WNA     WN  411   2.145   6.124   6.051 
  144WNA     WN  413   5.648   1.404   0.404 
  145WNA     WN  415   4.258   3.573   4.409 
  146WNA     WN  417   0.537   3.622   5.947 
  147WNA     WN  419   3.639   2.831   4.618 
  148WNA     WN  421   4.953   5.035   3.913 
  149WNA     WN  423   5.385   5.294   3.479 
  150WNA     WN  425   3.115   1.163   5.948 
  151WNA     WN  427   1.710   3.548   4.102 
  152WNA     WN  429   4.380   4.339   1.492 
  153WNA     WN  431   2.649   4.450   3.394 
  154WNA     WN  433   5.628   0.130   1.242 
  155WNA     WN  435   4.937   3.208   4.132 
  156WNA     WN  437   4.442   4.884   2.448 
  157WNA     WN  439   4.492   0.764   0.110 
  158WNA     WN  441   4.320   4.667   3.002 
  159WNA     WN  443   3.598   1.856   6.029 
  160WNA     WN  445   0.189   2.514   3.292 
  161WNA     WN  447   1.689   3.161   1.306 
  162WNA     WN  449   3.714   0.370   0.132 
  163WNA     WN  451   3.411   2.218   0.826 
  164WNA     WN  453   3.857   5.904   0.699 
  165WNA     WN  455   0.186   2.370   0.526 
  166WNA     WN  457   2.178   2.930   1.387 
  167WNA     WN  459   3.115   3.173   5.038 
  168WNA     WN  461   4.615   1.260   3.861 
  169WNA     WN  463   2.267   4.149   4.747 
  170WNA     WN  465   1.333   3.332   0.186 
  171WNA     WN  467   0.428   1.707   0.514 
  172WNA     WN  469   3.694   5.282   3.440 
  173WNA     WN  471   1.227   2.230   4.748 
  174WNA     WN  473   4.950   1.976   5.544 
  175WNA     WN  475   3.906   3.580   2.712 
  176WNA     WN  477   4.024   0.137   5.882 
  177WNA     WN  479   1.863   2.874   5.260 
  178WNA     WN  481   1.424   1.876   0.667 
  179WNA     WN  483   5.905   5.053   3.423 
  180WNA     WN  485   2.143   3.952   4.130 
  181WNA     WN  487   5.751   0.344   6.115 
  182WNA     WN  489   3.967   3.394   0.677 
  183WNA     WN  491   4.325   3.208   0.967 
  184WNA     WN  493   2.942   1.150   5.399 
  185WNA     WN  495   4.587   0.178   2.843 
  186WNA     WN  497   5.573   4.384   2.660 
  187WNA     WN  499   5.462   4.972   4.283 
  188WNA     WN  501   5.179   1.234   5.990 
  189WNA     WN  503   3.112   1.832   4.344 
  190WNA     WN  505   1.295   0.242   6.078 
  191WNA     WN  507   0.240   0.859   2.786 
  192WNA     WN  509   5.214   0.507   1.919 
  193WNA     WN  511   4.093   3.776   6.091 
  194WNA     WN  513   5.234   4.867   5.250 
  195WNA     WN  515   2.280   5.622   5.758 
  196WNA     WN  517   4.563   2.546   2.010 
  197WNA     WN  519   2.852   4.750   3.808 
  198WNA     WN  521   2.358   2.030   0.231 
  199WNA     WN  523   5.759   5.621   1.545 
  200WNA     WN  525   2.734   0.291   2.956 
  201WNA     WN  527   5.438   1.389   5.247 
  202WNA     WN  529   4.968   0.843   3.503 
  203WNA     WN  531   5.885   2.148   2.108 
  204WNA     WN  533   0.440   0.373   2.821 
  205WNA     WN  535   2.428   2.184   4.252 
  206WNA     WN  537   0.442   3.666   4.674 
  207WNA     WN  539   4.518   3.703   1.655 
  208WNA     WN  541   1.939   4.684   3.293 
  209WNA     WN  543   4.849   2.895   2.371 
  210WNA     WN  545   5.040   1.986   0.854 
  211WNA     WN  547   2.054   5.019   2.990 
  212WNA     WN  549   1.311   0.894   5.181 
  213WNA     WN  551   4.820   4.066   3.536 
  214WNA     WN  553   0.685   0.717   4.451 
  215WNA     WN  555   4.666   3.345   1.373 
  216WNA     WN  557   3.478   4.880   1.418 
  217WNA     WN  559   0.889   0.311   0.547 
  218WNA     WN  561   2.838   0.790   5.060 
  219WNA     WN  563   1.059   6.029   1.092 
  220WNA     WN  565   1.170   3.463   5.060 
  221WNA     WN  567   5.018   3.598   1.679 
  222WNA     WN  569   2.766   0.236   0.682 
  223WNA     WN  571   2.135   3.403   1.400 
  224WNA     WN  573   4.519   1.969   1.753 
  225WNA     WN  575   1.490   4.052   5.269 
  226WNA     WN  577   5.170   1.930   4.500 
  227WNA     WN  579   1.323   1.820   3.668 
  228WNA     WN  581   4.761   1.218   5.754 
  229WNA     WN  583   3.815   2.811   5.574 
  230WNA     WN  585   3.833   4.231   4.799 
  231WNA     WN  587   5.230   0.782   2.374 
  232WNA     WN  589   4.478   5.852   3.886 
  233WNA     WN  591   2.801   0.814   5.767 
  234WNA     WN  593   5.613   0.038   0.238 
  235WNA     WN  595   2.398   0.498   6.014 
  236WNA     WN  597   4.306   5.359   2.298 
  237WNA     WN  599   4.430   2.166   0.539 
  238WNA     WN  601   4.731   1.634   4.527 
  239WNA     WN  603   0.929   2.062   3.743 
  240WNA     WN  605   3.978   1.705   0.996 
  241WNA     WN  607   5.356   0.473   5.815 
  242WNA     WN  609   5.977   3.788   3.504 
  243WNA     WN  611   4.693   0.236   0.597 
  244WNA     WN  613   6.031   2.482   2.459 
  245WNA     WN  615   4.469   5.464   5.885 
  246WNA     WN  617   2.091   0.986   5.961 
  247WNA     WN  619   4.483   5.108   4.491 
  248WNA     WN  621   2.849   4.235   1.272 
  249WNA     WN  623   4.307   1.268   0.892 
  250WNA     WN  625   4.256   2.677   3.242 
  251WNA     WN  627   0.356   0.287   3.647 
  252WNA     WN  629   2.195   3.518   3.148 
  253WNA     WN  631   4.465   3.717   3.680 
  254WNA     WN  633   2.984   0.849   1.725 
  255WNA     WN  635   3.177   0.116   3.021 
  256WNA     WN  637   4.824   4.547   1.356 
  257WNA     WN  639   1.876   4.810   2.613 
  258WNA     WN  641   4.761   1.182   0.492 
  259WNA     WN  643   5.374   6.125   4.523 
  260WNA     WN  645   0.774   4.807   3.602 
  261WNA     WN  647   2.107   1.445   2.447 
  262WNA     WN  649   2.088   3.948   2.203 
  263WNA     WN  651   0.514   1.168   4.738 
  264WNA     WN  653   4.328   2.549   5.065 
  265WNA     WN  655   2.969   1.228   3.682 
  266WNA     WN  657   0.939   0.850   0.654 
  267WNA     WN  659   2.269   1.968   3.685 
  268WNA     WN  661   4.919   5.016   1.232 
  269WNA     WN  663   6.220   5.000   5.850 
  270WNA     WN  665   5.040   5.856   4.146 
  271WNA     WN  667   0.870   4.346   2.206 
  272WNA     WN  669   5.327   4.951   5.977 
  273WNA     WN  671   1.393   0.555   1.840 
  274WNA     WN  673   5.091   3.031   1.353 
  275WNA     WN  675   4.171   3.493   2.317 
  276WNA     WN  677   4.142   1.068   3.904 
  277WNA     WN  679   2.083   1.093   5.160 
  278WNA     WN  681   3.462   5.745   0.980 
  279WNA     WN  683   1.701   4.565   5.285 
  280WNA     WN  685   2.934   2.371   0.868 
  281WNA     WN  687   3.656   1.934   4.934 
  282WNA     WN  689   6.103   0.756   5.338 
  283WNA     WN  691   5.086   3.733   2.130 
  284WNA     WN  693   4.689   2.237   3.547 
  285WNA     WN  695   1.362   1.440   1.338 
  286WNA     WN  697   4.419   6.020   6.053 
  287WNA     WN  699   3.858   4.931   2.591 
  288WNA     WN  701   1.517   5.719   2.684 
  289WNA     WN  703   6.017   1.057   5.696 
  290WNA     WN  705   5.828   0.953   0.592 
  291WNA     WN  707   1.541   4.299   3.466 
  292WNA     WN  709   1.667   0.696   6.041 
  293WNA     WN  711   3.804   5.316   2.173 
  294WNA     WN  713   1.943   4.407   4.473 
  295WNA     WN  715   6.052   2.194   4.185 
  296WNA     WN  717   2.745   1.866   3.982 
  297WNA     WN  719   1.672   6.159   6.187 
  298WNA     WN  721   2.205   4.158   0.016 
  299WNA     WN  723   2.808   4.392   2.852 
  300WNA     WN  725   4.652   3.213   6.191 
  301WNA     WN  727   2.063   5.822   4.529 
  302WNA     WN  729   1.308   3.890   2.846 
  303WNA     WN  731   3.060   0.456   2.101 
  304WNA     WN  733   4.558   0.484   4.612 
  305WNA     WN  735   4.459   3.033   5.337 
  306WNA     WN  737   3.896   0.345   1.152 
  307WNA     WN  739   4.301   1.171   6.028 
  308WNA     WN  741   5.088   3.733   0.036 
  309WNA     WN  743   4.148   1.664   5.262 
  310WNA     WN  745   6.206   5.207   3.789 
  311WNA     WN  747   0.156   1.244   0.910 
  312WNA     WN  749   5.032   3.738   3.839 
  313WNA     WN  751   3.784   0.778   4.174 
  314WNA     WN  753   5.857   0.706   3.485 
  315WNA     WN  755   6.170   0.148   1.027 
  316WNA     WN  757   4.024   1.062   1.892 
  317WNA     WN  759   0.114   3.078   3.333 
  318WNA     WN  761   3.486   4.404   0.306 
  319WNA     WN  763   0.212   5.903   6.007 
  320WNA     WN  765   2.852   3.064   5.646 
  321WNA     WN  767   5.501   2.632   1.500 
  322WNA     WN  769   2.090   0.870   1.042 
  323WNA     WN  771   6.095   0.063   4.010 
  324WNA     WN  773   0.954   0.204   5.718 
  325WNA     WN  775   5.572   5.796   4.931 
  326WNA     WN  777   1.117   2.819   4.026 
  327WNA     WN  779   0.046   4.604   3.136 
  328WNA     WN  781   3.758   0.535   3.070 
  329WNA     WN  783   3.709   3.292   5.680 
  330WNA     WN  785   4.970   4.669   1.811 
  331WNA     WN  787   0.766   0.018   3.572 
  332WNA     WN  789   3.511   5.515   0.062 
  333WNA     WN  791   0.800   1.745   4.089 
  334WNA     WN  793   2.039   4.096   3.319 
  335WNA     WN  795   4.024   1.690   3.043 
  336WNA     WN  797   4.827   5.093   6.155 
  337WNA     WN  799   5.803   5.211   2.941 
  338WNA     WN  801   6.222   1.591   3.523 
  339WNA     WN  803   0.991   1.246   5.001 
  340WNA     WN  805   3.707   5.247   3.901 
  341WNA     WN  807   6.091   0.301   3.612 
  342WNA     WN  809   2.336   3.551   5.608 
  343WNA     WN  811   1.452   3.071   5.446 
  344WNA     WN  813   0.655   2.206   2.606 
  345WNA     WN  815   4.098   2.458   0.326 
  346WNA     WN  817   0.681   1.851   5.651 
  347WNA     WN  819   0.921   3.600   3.491 
  348WNA     WN  821   0.954   0.022   4.142 
  349WNA     WN  823   3.788   4.388   3.408 
  350WNA     WN  825   5.238   4.235   1.053 
  351WNA     WN  827   4.637   3.359   2.066 
  352WNA     WN  829   5.427   0.972   4.400 
  353WNA     WN  831   4.056   0.081   5.158 
  354WNA     WN  833   4.709   2.107   4.929 
  355WNA     WN  835   0.376   1.194   1.399 
  356WNA     WN  837   4.295   6.058   2.502 
  357WNA     WN  839   5.345   4.259   2.063 
  358WNA     WN  841   1.159   1.012   4.572 
  359WNA     WN  843   0.071   0.735   3.739 
  360WNA     WN  845   0.845   1.675   0.729 
  361WNA     WN  847   3.302   1.596   5.794 
  362WNA     WN  849   5.266   3.529   1.106 
  363WNA     WN  851   4.415   3.432   5.758 
  364WNA     WN  853   1.730   2.771   3.857 
  365WNA     WN  855   3.003   4.574   0.267 
  366WNA     WN  857   3.548   1.866   5.375 
  367WNA     WN  859   4.386   4.710   4.692 
  368WNA     WN  861   0.285   3.435   1.739 
  369WNA     WN  863   2.745   2.344   1.820 
  370WNA     WN  865   2.253   5.899   1.863 
  371WNA     WN  867   1.261   4.033   2.282 
  372WNA     WN  869   1.037   5.718   1.789 
  373WNA     WN  871   4.226   2.073   4.912 
  374WNA     WN  873   0.440   0.062   5.907 
  375WNA     WN  875   3.154   3.720   4.386 
  376WNA     WN  877   0.756   5.516   0.791 
  377WNA     WN  879   3.977   1.591   6.196 
  378WNA     WN  881   5.078   5.634   2.217 
  379WNA     WN  883   0.447   2.327   5.906 
  380WNA     WN  885   5.758   5.481   4.450 
  381WNA     WN  887   5.123   0.301   2.390 
  382WNA     WN  889   4.029   3.468   3.818 
  383WNA     WN  891   0.487   4.373   3.329 
  384WNA     WN  893   4.691   2.876   1.066 
  385WNA     WN  895   3.158   0.004   5.194 
  386WNA     WN  897   3.682   5.211   5.904 
  387WNA     WN  899   1.430   0.544   4.566 
  388WNA     WN  901   3.997   0.732   1.535 
  389WNA     WN  903   1.592   2.151   3.983 
  390WNA     WN  905   5.294   3.879   2.610 
  391WNA     WN  907   2.950   3.618   0.521 
  392WNA     WN  909   4.015   4.560   5.987 
  393WNA     WN  911   0.988   2.500   5.465 
  394WNA     WN  913   0.209   2.088   1.442 
  395WNA     WN  915   2.739   4.253   4.709 
  396WNA     WN  917   4.314   6.023   0.562 
  397WNA     WN  919   1.210   3.400   3.173 
  398WNA     WN  921   0.761   0.399   3.246 
  399WNA     WN  923   0.124   2.698   1.509 
  400WNA     WN  925   0.156   6.039   3.577 
  401WNA     WN  927   4.793   0.879   0.988 
  402WNA     WN  929   1.159   1.069   2.570 
  403WNA     WN  931   0.115   5.091   3.182 
  404WNA     WN  933   4.402   1.610   1.271 
  405WNA     WN  935   5.978   1.126   2.147 
  406WNA     WN  937   2.457   5.666   0.553 
  407WNA     WN  939   3.006   5.662   2.521 
  408WNA     WN  941   2.994   3.923   5.381 
  409WNA     WN  943   1.526   1.072   3.907 
  410WNA     WN  945   0.264   0.765   1.179 
  411WNA     WN  947   1.697   0.277   4.884 
  412WNA     WN  949   5.289   3.155   5.461 
  413WNA     WN  951   0.602   3.984   1.697 
  414WNA     WN  953   5.400   4.849   2.617 
  415WNA     WN  955   2.487   1.303   5.425 
  416WNA     WN  957   4.362   5.010   5.520 
  417WNA     WN  959   1.510   5.644   1.785 
  418WNA     WN  961   4.787   1.633   2.569 
  419WNA     WN  963   0.986   3.951   5.962 
  420WNA     WN  965   2.490   5.242   2.892 
  421WNA     WN  967   0.253   2.995   2.293 
  422WNA     WN  969   1.476   6.018   0.677 
  423WNA     WN  971   3.150   3.212   0.339 
  424WNA     WN  973   0.473   3.412   2.433 
  425WNA     WN  975   3.384   2.493   2.989 
  426WNA     WN  977   2.351   5.263   4.493 
  427WNA     WN  979   2.718   3.070   3.871 
  428WNA     WN  981   1.412   0.050   5.568 
  429WNA     WN  983   6.151   4.202   0.815 
  430WNA     WN  985   0.105   0.831   0.268 
  431WNA     WN  987   0.366   0.303   1.220 
  432WNA     WN  989   0.911   6.038   2.281 
  433WNA     WN  991   1.698   3.593   2.983 
  434WNA     WN  993   3.345   1.683   3.630 
  435WNA     WN  995   6.046   3.521   4.843 
  436WNA     WN  997   3.135   1.150   0.794 
  437WNA     WN  999   4.333   1.517   4.223 
  438WNA     WN 1001   2.381   2.634   2.076 
  439WNA     WN 1003   4.393   3.445   5.027 
  440WNA     WN 1005   1.550   6.189   3.592 
  441WNA     WN 1007   1.280   3.853   4.821 
  442WNA     WN 1009   0.956   4.563   1.601 
  443WNA     WN 1011   5.288   6.133   0.919 
  444WNA     WN 1013   0.645   2.608   2.964 
  445WNA     WN 1015   2.380   0.800   4.890 
  446WNA     WN 1017   5.795   2.645   1.108 
  447WNA     WN 1019   3.472   3.007   0.056 
  448WNA     WN 1021   5.032   5.161   1.659 
  449WNA     WN 1023   3.238   2.990   4.310 
  450WNA     WN 1025   1.295   4.408   5.021 
  451WNA     WN 1027   5.182   2.544   0.244 
  452WNA     WN 1029   0.377   5.716   4.272 
  453WNA     WN 1031   1.734   5.337   2.859 
  454WNA     WN 1033   3.590   1.237   5.983 
  455WNA     WN 1035   1.964   3.556   4.596 
  456WNA     WN 1037   0.516   5.040   5.412 
  457WNA     WN 1039   6.096   5.304   2.321 
  458WNA     WN 1041   3.506   6.175   1.225 
  459WNA     WN 1043   1.801   0.655   0.696 
  460WNA     WN 1045   4.059   2.740   2.755 
  461WNA     WN 1047   5.044   2.210   3.144 
  462WNA     WN 1049   0.041   5.418   6.142 
  463WNA     WN 1051   3.950   5.644   2.492 
  464WNA     WN 1053   5.877   1.091   1.620 
  465WNA     WN 1055   4.468   4.334   5.036 
  466WNA     WN 1057   0.391   3.030   2.863 
  467WNA     WN 1059   4.188   0.809   2.275 
  468WNA     WN 1061   2.088   0.955   2.393 
  469WNA     WN 1063   5.078   3.163   1.982 
  470WNA     WN 1065   3.797   0.069   1.708 
  471WNA     WN 1067   3.014   2.777   2.864 
  472WNA     WN 1069   0.906   6.041   0.611 
  473WNA     WN 1071   0.238   0.263   2.408 
  474WNA     WN 1073   1.535   5.713   3.447 
  475WNA     WN 1075   1.043   4.762   1.184 
  476WNA     WN 1077   5.361   4.776   3.718 
  477WNA     WN 1079   4.947   4.152   2.388 
  478WNA     WN 1081   4.603   0.518   3.247 
  479WNA     WN 1083   1.137   1.336   0.321 
  480WNA     WN 1085   3.010   2.193   2.698 
  481WNA     WN 1087   0.033   4.426   4.110 
  482WNA     WN 1089   2.862   1.628   5.616 
  483WNA     WN 1091   2.337   1.806   5.493 
  484WNA     WN 1093   3.070   2.355   0.355 
  485WNA     WN 1095   2.771   2.170   1.405 
  486WNA     WN 1097   6.027   1.404   1.301 
  487WNA     WN 1099   3.175   1.437   2.280 
  488WNA     WN 1101   0.886   2.025   6.065 
  489WNA     WN 1103   2.367   0.662   3.026 
  490WNA     WN 1105   2.327   2.980   5.490 
  491WNA     WN 1107   3.301   3.383   5.468 
  492WNA     WN 1109   4.254   5.336   1.774 
  493WNA     WN 1111   5.850   0.063   4.926 
  494WNA     WN 1113   5.838   0.487   5.653 
  495WNA     WN 1115   0.939   1.070   1.660 
  496WNA     WN 1117   5.853   1.539   1.928 
  497WNA     WN 1119   3.618   3.507   2.191 
  498WNA     WN 1121   2.407   4.033   3.703 
  499WNA     WN 1123   2.532   1.528   2.142 
  500WNA     WN 1125   3.434   5.618   2.210 
  501WNA     WN 1127   4.231   5.219   2.719 
  502WNA     WN 1129   5.153   4.028   4.712 
  503WNA     WN 1131   2.434   0.003   4.377 
  504WNA     WN 1133   1.811   0.451   2.704 
  505WNA     WN 1135   4.512   4.571   1.928 
  506WNA     WN 1137   3.341   0.383   4.232 
  507WNA     WN 1139   0.521   5.278   5.928 
  508WNA     WN 1141   5.927   2.621   1.781 
  509WNA     WN 1143   1.868   5.913   0.349 
  510WNA     WN 1145   4.601   4.716   5.889 
  511WNA     WN 1147   2.323   4.491   0.838 
  512WNA     WN 1149   0.511   2.391   1.104 
  513WNA     WN 1151   1.801   1.171   2.027 
  514WNA     WN 1153   1.135   3.300   4.227 
  515WNA     WN 1155   2.059   1.699   0.389 
  516WNA     WN 1157   0.607   3.032   3.383 
  517WNA     WN 1159   0.644   4.486   2.710 
  518WNA     WN 1161   2.308   2.292   1.492 
  519WNA     WN 1163   5.812   3.403   2.626 
  520WNA     WN 1165   0.495   2.345   3.856 
  521WNA     WN 1167   4.492   0.146   5.542 
  522WNA     WN 1169   2.437   3.101   2.206 
  523WNA     WN 1171   1.917   3.514   0.916 
  524WNA     WN 1173   3.430   5.579   2.770 
  525WNA     WN 1175   3.107   5.836   6.021 
  526WNA     WN 1177   5.506   1.000   1.935 
  527WNA     WN 1179   4.053   0.314   2.160 
  528WNA     WN 1181   5.957   4.854   0.995 
  529WNA     WN 1183   0.737   0.656   5.357 
  530WNA     WN 1185   3.212   2.833   1.161 
  531WNA     WN 1187   5.557   1.612   4.779 
  532WNA     WN 1189   4.016   3.319   0.093 
  533WNA     WN 1191   2.565   1.495   2.718 
  534WNA     WN 1193   2.907   0.621   3.855 
  535WNA     WN 1195   3.472   1.762   2.082 
  536WNA     WN 1197   2.625   0.401   4.817 
  537WNA     WN 1199   4.587   3.071   3.180 
  538WNA     WN 1201   1.059   2.510   2.599 
  539WNA     WN 1203   2.025   4.779   1.143 
  540WNA     WN 1205   1.433   3.857   0.033 
  541WNA     WN 1207   1.596   5.020   4.223 
  542WNA     WN 1209   3.220   1.427   3.096 
  543WNA     WN 1211   3.209   1.714   5.055 
  544WNA     WN 1213   0.706   1.428   0.176 
  545WNA     WN 1215   2.236   1.707   2.947 
  546WNA     WN 1217   5.611   0.356   3.650 
  547WNA     WN 1219   5.670   3.848   2.325 
  548WNA     WN 1221   4.815   0.036   5.903 
  549WNA     WN 1223   2.382   5.483   2.261 
  550WNA     WN 1225   4.736   2.918   1.713 
  551WNA     WN 1227   0.393   2.587   0.077 
  552WNA     WN 1229   2.895   5.074   5.150 
  553WNA     WN 1231   1.559   4.525   4.084 
  554WNA     WN 1233   0.357   3.495   0.104 
  555WNA     WN 1235   0.114   2.011   5.764 
  556WNA     WN 1237   1.262   1.696   4.828 
  557WNA     WN 1239   6.042   6.057   2.401 
  558WNA     WN 1241   2.368   4.774   3.647 
  559WNA     WN 1243   5.216   0.384   3.364 
  560WNA     WN 1245   3.160   5.375   5.826 
  561WNA     WN 1247   2.499   3.825   4.469 
  562WNA     WN 1249   4.522   0.278   5.048 
  563WNA     WN 1251   6.167   1.090   4.886 
  564WNA     WN 1253   5.643   1.699   3.395 
  565WNA     WN 1255   4.021   4.497   1.793 
  566WNA     WN 1257   3.522   0.358   5.318 
  567WNA     WN 1259   1.152   2.865   5.129 
  568WNA     WN 1261   3.248   0.940   3.363 
  569WNA     WN 1263   2.055   1.918   4.106 
  570WNA     WN 1265   0.355   3.702   1.313 
  571WNA     WN 1267   5.175   0.560   5.360 
  572WNA     WN 1269   2.508   3.389   0.570 
  573WNA     WN 1271   2.398   1.655   4.417 
  574WNA     WN 1273   1.942   4.249   3.768 
  575WNA     WN 1275   0.921   5.935   0.051 
  576WNA     WN 1277   5.981   0.277   4.479 
  577WNA     WN 1279   1.588   2.294   2.912 
  578WNA     WN 1281   1.433   5.083   1.947 
  579WNA     WN 1283   4.922   1.710   4.042 
  580WNA     WN 1285   6.110   1.272   2.602 
  581WNA     WN 1287   6.006   4.647   0.517 
  582WNA     WN 1289   4.432   5.164   0.194 
  583WNA     WN 1291   4.462   4.822   3.863 
  584WNA     WN 1293   2.398   0.917   0.138 
  585WNA     WN 1295   5.165   4.953   0.297 
  586WNA     WN 1297   0.615   2.486   2.115 
  587WNA     WN 1299   3.057   1.262   1.338 
  588WNA     WN 1301   1.066   0.711   5.947 
  589WNA     WN 1303   3.056   5.073   4.305 
  590WNA     WN 1305   2.893   5.999   0.423 
  591WNA     WN 1307   6.078   1.803   4.530 
  592WNA     WN 1309   5.159   1.246   0.716 
  593WNA     WN 1311   4.556   3.817   2.244 
  594WNA     WN 1313   0.940   4.705   5.513 
  595WNA     WN 1315   2.366   2.801   2.915 
  596WNA     WN 1317   3.383   0.872   1.089 
  597WNA     WN 1319   1.256   5.271   4.696 
  598WNA     WN 1321   4.212   3.996   3.964 
  599WNA     WN 1323   2.578   2.252   2.336 
  600WNA     WN 1325   1.779   4.133   4.902 
  601WNA     WN 1327   2.426   2.938   4.708 
  602WNA     WN 1329   1.625   4.288   3.009 
  603WNA     WN 1331   3.121   4.792   1.966 
  604WNA     WN 1333   3.352   4.039   3.410 
  605WNA     WN 1335   1.656   1.327   4.897 
  606WNA     WN 1337   2.086   3.506   2.371 
  607WNA     WN 1339   5.759   4.801   5.694 
  608WNA     WN 1341   2.452   3.179   1.709 
  609WNA     WN 1343   0.227   3.459   3.612 
  610WNA     WN 1345   5.737   5.394   1.028 
  611WNA     WN 1347   5.539   5.169   4.786 
  612WNA     WN 1349   6.039   5.506   1.925 
  613WNA     WN 1351   4.675   3.977   0.314 
  614WNA     WN 1353   1.713   1.062   4.376 
  615WNA     WN 1355   2.554   2.263   5.347 
  616WNA     WN 1357   3.788   1.918   0.461 
  617WNA     WN 1359   0.315   1.021   5.619 
  618WNA     WN 1361   3.583   4.606   4.897 
  619WNA     WN 1363   1.028   5.162   3.393 
  620WNA     WN 1365   4.904   5.496   0.323 
  621WNA     WN 1367   4.969   1.231   1.250 
  622WNA     WN 1369   5.792   4.272   1.846 
  623WNA     WN 1371   2.214   0.423   4.538 
  624WNA     WN 1373   2.637   2.723   1.435 
  625WNA     WN 1375   5.811   3.441   3.134 
  626WNA     WN 1377   5.705   0.607   0.987 
  627WNA     WN 1379   3.566   0.156   4.803 
  628WNA     WN 1381   1.169   1.453   4.018 
  629WNA     WN 1383   4.327   5.198   5.002 
  630WNA     WN 1385   1.053   0.402   3.635 
  631WNA     WN 1387   2.171   4.731   0.116 
  632WNA     WN 1389   1.861   5.939   3.833 
  633WNA     WN 1391   4.737   3.975   5.669 
  634WNA     WN 1393   2.324   5.760   4.052 
  635WNA     WN 1395   2.623   3.685   3.400 
  636WNA     WN 1397   5.624   0.916   5.953 
  637WNA     WN 1399   1.205   4.823   4.520 
  638WNA     WN 1401   3.873   3.305   4.734 
  639WNA     WN 1403   2.780   0.100   2.026 
  640WNA     WN 1405   3.811   3.770   5.626 
  641WNA     WN 1407   3.837   5.450   3.029 
  642WNA     WN 1409   5.095   0.384   4.821 
  643WNA     WN 1411   0.185   5.469   5.584 
  644WNA     WN 1413   5.809   1.687   2.438 
  645WNA     WN 1415   4.421   5.578   0.676 
  646WNA     WN 1417   1.376   0.224   2.785 
  647WNA     WN 1419   5.815   3.225   3.559 
  648WNA     WN 1421   3.869   0.487   4.998 
  649WNA     WN 1423   2.814   1.680   3.488 
  650WNA     WN 1425   3.768   0.116   4.356 
  651WNA     WN 1427   5.206   2.468   4.505 
  652WNA     WN 1429   4.278   1.746   2.567 
  653WNA     WN 1431   5.272   3.688   3.389 
  654WNA     WN 1433   5.634   1.117   4.867 
  655WNA     WN 1435   5.543   0.718   1.497 
  656WNA     WN 1437   0.732   4.927   2.470 
  657WNA     WN 1439   1.270   2.340   5.902 
  658WNA     WN 1441   3.567   4.862   2.151 
  659WNA     WN 1443   2.603   3.604   1.494 
  660WNA     WN 1445   4.958   0.056   3.123 
  661WNA     WN 1447   5.436   4.791   3.101 
  662WNA     WN 1449   3.363   2.927   5.782 
  663WNA     WN 1451   4.782   0.269   1.778 
  664WNA     WN 1453   3.283   1.696   2.720 
  665WNA     WN 1455   6.171   1.985   3.195 
  666WNA     WN 1457   1.371   2.507   3.690 
  667WNA     WN 1459   2.862   0.628   0.135 
  668WNA     WN 1461   2.509   2.007   4.789 
  669WNA     WN 1463   2.428   4.745   2.873 
  670WNA     WN 1465   5.538   3.776   3.814 
  671WNA     WN 1467   4.670   5.093   0.590 
  672WNA     WN 1469   1.709   1.590   3.880 
  673WNA     WN 1471   4.660   4.745   4.289 
  674WNA     WN 1473   2.277   4.344   2.447 
  675WNA     WN 1475   2.564   2.762   4.286 
  676WNA     WN 1477   5.723   5.411   5.902 
  677WNA     WN 1479   4.079   2.506   1.264 
  678WNA     WN 1481   1.366   2.504   0.357 
  679WNA     WN 1483   5.944   0.644   1.776 
  680WNA     WN 1485   4.448   2.107   2.283 
  681WNA     WN 1487   4.390   0.520   1.877 
  682WNA     WN 1489   1.198   4.359   2.880 
  683WNA     WN 1491   1.091   2.720   2.034 
  684WNA     WN 1493   4.805   2.432   5.239 
  685WNA     WN 1495   5.132   4.009   3.019 
  686WNA     WN 1497   5.221   4.246   0.563 
  687WNA     WN 1499   5.997   1.454   0.838 
  688WNA     WN 1501   2.119   1.250   4.664 
  689WNA     WN 1503   1.512   5.291   0.584 
  690WNA     WN 1505   1.979   0.856   3.892 
  691WNA     WN 1507   1.261   4.418   0.893 
  692WNA     WN 1509   3.268   0.098   3.806 
  693WNA     WN 1511   1.068   2.913   5.706 
  694WNA     WN 1513   3.592   5.949   6.060 
  695WNA     WN 1515   2.585   0.926   2.622 
  696WNA     WN 1517   2.470   0.795   5.389 
  697WNA     WN 1519   0.467   1.589   1.019 
  698WNA     WN 1521   4.925   4.626   2.357 
  699WNA     WN 1523   4.530   0.192   2.261 
  700WNA     WN 1525   4.289   2.948   5.785 
  701WNA     WN 1527   3.349   4.292   1.590 
  702WNA     WN 1529   4.681   2.764   4.342 
  703WNA     WN 1531   4.849   2.603   4.814 
  704WNA     WN 1533   2.122   3.862   2.783 
  705WNA     WN 1535   2.179   0.888   4.377 
  706WNA     WN 1537   4.897   0.063   5.232 
  707WNA     WN 1539   0.949   1.697   2.575 
  708WNA     WN 1541   5.250   5.374   6.119 
  709WNA     WN 1543   5.929   1.279   5.246 
  710WNA     WN 1545   2.979   1.179   0.192 
  711WNA     WN 1547   0.462   1.327   2.787 
  712WNA     WN 1549   4.494   6.027   5.192 
  713WNA     WN 1551   5.099   5.750   3.194 
  714WNA     WN 1553   4.386   4.622   0.971 
  715WNA     WN 1555   3.928   5.647   0.288 
  716WNA     WN 1557   4.150   5.679   4.947 
  717WNA     WN 1559   2.311   2.489   0.057 
  718WNA     WN 1561   5.946   5.652   3.558 
  719WNA     WN 1563   0.302   2.858   0.958 
  720WNA     WN 1565   5.096   0.759   0.642 
  721WNA     WN 1567   4.940   5.812   1.200 
  722WNA     WN 1569   0.255   3.814   2.096 
  723WNA     WN 1571   3.315   0.144   6.157 
  724WNA     WN 1573   3.436   3.085   2.755 
  725WNA     WN 1575   6.107   0.491   1.355 
  726WNA     WN 1577   1.079   5.436   3.795 
  727WNA     WN 1579   4.613   5.577   2.595 
  728WNA     WN 1581   0.001   2.442   1.041 
  729WNA     WN 1583   1.789   0.196   5.832 
  730WNA     WN 1585   3.271   3.686   4.932 
  731WNA     WN 1587   1.773   0.300   3.151 
  732WNA     WN 1589   0.712   1.632   4.830 
  733WNA     WN 1591   0.248   6.026   2.772 
  734WNA     WN 1593   0.337   0.342   1.770 
  735WNA     WN 1595   3.678   5.656   4.132 
  736WNA     WN 1597   0.878   2.704   3.576 
  737WNA     WN 1599   2.190   0.483   1.503 
  738WNA     WN 1601   0.115   3.922   3.902 
  739WNA     WN 1603   5.654   0.557   4.949 
  740WNA     WN 1605   5.927   1.914   3.782 
  741WNA     WN 1607   4.160   0.509   4.121 
  742WNA     WN 1609   2.311   2.910   0.340 
  743WNA     WN 1611   2.951   0.086   1.112 
  744WNA     WN 1613   4.144   2.405   5.639 
  745WNA     WN 1615   0.633   3.354   5.009 
  746WNA     WN 1617   2.429   6.208   1.061 
  747WNA     WN 1619   1.108   2.344   4.137 
  748WNA     WN 1621   4.648   4.230   0.909 
  749WNA     WN 1623   0.822   4.028   3.096 
  750WNA     WN 1625   3.144   5.079   1.112 
  751WNA     WN 1627   2.030   0.280   0.051 
  752WNA     WN 1629   5.983   4.920   4.288 
  753WNA     WN 1631   2.431   4.433   4.024 
  754WNA     WN 1633   2.856   1.508   4.678 
  755WNA     WN 1635   3.400   5.083   4.854 
  756WNA     WN 1637   1.700   0.162   1.607 
  757WNA     WN 1639   4.953   0.888   0.157 
  758WNA     WN 1641   1.623   1.200   2.650 
  759WNA     WN 1643   0.670   1.467   1.904 
  760WNA     WN 1645   0.211   5.380   5.079 
  761WNA     WN 1647   4.886   5.775   6.063 
  762WNA     WN 1649   6.139   2.318   4.641 
  763WNA     WN 1651   0.484   5.999   0.937 
  764WNA     WN 1653   2.314   6.001   2.350 
  765WNA     WN 1655   1.640   1.464   0.814 
  766WNA     WN 1657   3.132   5.629   0.658 
  767WNA     WN 1659   1.445   3.439   4.612 
  768WNA     WN 1661   2.019   0.995   1.508 
  769WNA     WN 1663   3.870   2.931   6.023 
  770WNA     WN 1665   2.015   3.159   1.815 
  771WNA     WN 1667   1.882   5.419   2.177 
  772WNA     WN 1669   5.283   0.870   1.097 
  773WNA     WN 1671   4.726   4.981   2.078 
  774WNA     WN 1673   4.208   2.982   4.413 
  775WNA     WN 1675   4.030   5.933   5.503 
  776WNA     WN 1677   2.252   5.330   3.854 
  777WNA     WN 1679   5.451   5.160   5.528 
  778WNA     WN 1681   3.570   4.102   0.718 
  779WNA     WN 1683   4.013   2.586   2.247 
  780WNA     WN 1685   3.120   2.045   3.777 
  781WNA     WN 1687   3.149   5.767   5.434 
  782WNA     WN 1689   6.028   5.182   4.817 
  783WNA     WN 1691   6.042   0.275   2.110 
  784WNA     WN 1693   3.099   5.674   1.227 
  785WNA     WN 1695   1.021   4.850   2.891 
  786WNA     WN 1697   4.139   5.486   4.493 
  787WNA     WN 1699   2.439   3.123   5.974 
  788WNA     WN 1701   2.695   5.479   5.377 
  789WNA     WN 1703   1.434   1.337   3.511 
  790WNA     WN 1705   6.101   3.569   2.271 
  791WNA     WN 1707   5.612   1.357   3.904 
  792WNA     WN 1709   6.178   2.890   2.754 
  793WNA     WN 1711   0.455   4.395   4.352 
  794WNA     WN 1713   3.600   5.668   5.563 
  795WNA     WN 1715   4.720   0.567   5.470 
  796WNA     WN 1717   3.998   0.511   5.513 
  797WNA     WN 1719   1.460   1.950   6.102 
  798WNA     WN 1721   4.066   0.660   6.112 
  799WNA     WN 1723   5.467   2.008   2.290 
  800WNA     WN 1725   5.634   0.084   2.337 
  801WNA     WN 1727   3.796   4.194   3.828 
  802WNA     WN 1729   5.959   1.584   2.971 
  803WNA     WN 1731   2.555   3.161   1.107 
  804WNA     WN 1733   2.127   2.683   2.498 
  805WNA     WN 1735   0.775   0.242   4.937 
  806WNA     WN 1737   4.562   0.671   1.444 
  807WNA     WN 1739   1.583   5.356   5.289 
  808WNA     WN 1741   4.248   0.120   3.809 
  809WNA     WN 1743   1.856   2.486   1.304 
  810WNA     WN 1745   1.994   1.259   3.618 
  811WNA     WN 1747   2.144   1.534   1.801 
  812WNA     WN 1749   0.834   3.786   0.174 
  813WNA     WN 1751   1.456   4.372   4.581 
  814WNA     WN 1753   3.169   1.722   1.445 
  815WNA     WN 1755   3.988   5.588   5.991 
  816WNA     WN 1757   3.010   5.595   1.693 
  817WNA     WN 1759   4.880   0.270   3.701 
  818WNA     WN 1761   3.571   2.919   1.548 
  819WNA     WN 1763   0.611   5.441   4.767 
  820WNA     WN 1765   0.140   6.031   5.534 
  821WNA     WN 1767   3.064   4.101   0.488 
  822WNA     WN 1769   0.240   1.990   0.900 
  823WNA     WN 1771   2.611   5.851   6.124 
  824WNA     WN 1773   5.244   5.019   2.137 
  825WNA     WN 1775   4.710   6.120   0.184 
  826WNA     WN 1777   3.927   4.905   3.201 
  827WNA     WN 1779   4.811   3.418   0.900 
  828WNA     WN 1781   2.427   5.527   4.945 
  829WNA     WN 1783   6.012   5.154   1.530 
  830WNA     WN 1785   2.711   4.926   3.278 
  831WNA     WN 1787   1.902   3.767   5.954 
  832WNA     WN 1789   5.343   1.735   5.684 
  833WNA     WN 1791   3.300   4.735   4.524 
  834WNA     WN 1793   6.154   1.846   1.796 
  835WNA     WN 1795   1.671   0.908   3.447 
  836WNA     WN 1797   0.653   2.742   4.818 
  837WNA     WN 1799   2.175   4.566   5.040 
  838WNA     WN 1801   3.539   4.366   2.209 
  839WNA     WN 1803   1.586   5.167   3.368 
  840WNA     WN 1805   0.549   2.436   1.616 
  841WNA     WN 1807   2.156   0.502   2.353 
  842WNA     WN 1809   4.149   5.033   6.018 
  843WNA     WN 1811   3.792   0.994   5.218 
  844WNA     WN 1813   5.050   3.480   2.961 
  845WNA     WN 1815   1.576   2.295   0.975 
  846WNA     WN 1817   1.789   4.443   0.905 
  847WNA     WN 1819   2.036   5.679   2.612 
  848WNA     WN 1821   3.056   2.676   3.958 
  849WNA     WN 1823   4.179   1.281   2.384 
  850WNA     WN 1825   5.328   3.309   2.496 
  851WNA     WN 1827   4.021   3.467   1.342 
  852WNA     WN 1829   5.899   2.295   3.461 
  853WNA     WN 1831   2.261   1.165   2.907 
  854WNA     WN 1833   3.872   0.943   5.734 
  855WNA     WN 1835   3.859   4.841   5.565 
  856WNA     WN 1837   4.344   3.769   0.731 
  857WNA     WN 1839   3.465   5.375   1.365 
  858WNA     WN 1841   4.179   1.486   1.672 
  859WNA     WN 1843   4.216   5.352   3.267 
  860WNA     WN 1845   1.440   1.954   1.932 
  861WNA     WN 1847   1.941   3.769   1.702 
  862WNA     WN 1849   0.264   1.851   4.118 
  863WNA     WN 1851   4.019   1.785   2.056 
  864WNA     WN 1853   3.542   0.500   1.431 
  865WNA     WN 1855   1.706   5.728   0.993 
  866WNA     WN 1857   5.505   2.957   1.872 
  867WNA     WN 1859   1.434   0.743   2.788 
  868WNA     WN 1861   4.710   2.599   3.073 
  869WNA     WN 1863   3.970   5.304   1.368 
  870WNA     WN 1865   4.333   3.006   2.207 
  871WNA     WN 1867   3.260   6.132   0.776 
  872WNA     WN 1869   2.122   0.178   1.983 
  873WNA     WN 1871   3.559   4.625   3.005 
  874WNA     WN 1873   0.526   4.812   3.145 
  875WNA     WN 1875   1.627   4.783   4.888 
  876WNA     WN 1877   5.348   2.271   0.600 
  877WNA     WN 1879   3.274   6.039   3.429 
  878WNA     WN 1881   0.586   5.316   3.366 
  879WNA     WN 1883   2.657   0.185   0.168 
  880WNA     WN 1885   5.194   4.419   3.349 
  881WNA     WN 1887   2.700   3.348   0.140 
  882WNA     WN 1889   2.752   3.445   5.335 
  883WNA     WN 1891   3.516   1.818   3.150 
  884WNA     WN 1893   5.017   4.385   5.185 
  885WNA     WN 1895   4.086   0.468   3.497 
  886WNA     WN 1897   4.582   1.082   2.352 
  887WNA     WN 1899   4.818   1.173   4.315 
  888WNA     WN 1901   3.846   5.765   1.301 
  889WNA     WN 1903   6.092   0.299   0.282 
  890WNA     WN 1905   1.689   3.442   2.105 
  891WNA     WN 1907   3.618   0.460   5.819 
  892WNA     WN 1909   3.409   3.831   0.293 
  893WNA     WN 1911   1.425   1.558   2.287 
  894WNA     WN 1913   2.476   6.198   3.900 
  895WNA     WN 1915   1.674   1.249   5.997 
  896WNA     WN 1917   1.436   0.508   5.593 
  897WNA     WN 1919   0.081   6.087   1.993 
  898WNA     WN 1921   5.625   2.210   4.698 
  899WNA     WN 1923   3.313   2.746   0.650 
  900WNA     WN 1925   3.604   2.389   0.391 
  901WNA     WN 1927   3.162   4.384   3.802 
  902WNA     WN 1929   2.440   1.531   3.867 
  903WNA     WN 1931   2.171   1.795   1.375 
  904WNA     WN 1933   1.073   2.054   2.885 
  905WNA     WN 1935   1.597   2.488   2.500 
  906WNA     WN 1937   4.123   3.670   3.294 
  907WNA     WN 1939   0.013   3.040   3.844 
  908WNA     WN 1941   3.992   4.738   1.330 
  909WNA     WN 1943   0.737   4.767   4.081 
  910WNA     WN 1945   3.795   3.958   3.096 
  911WNA     WN 1947   1.965   3.289   5.992 
  912WNA     WN 1949   1.077   1.896   1.666 
  913WNA     WN 1951   0.149   3.320   4.242 
  914WNA     WN 1953   1.223   3.173   2.174 
  915WNA     WN 1955   1.012   6.198   3.139 
  916WNA     WN 1957   0.603   2.772   5.513 
  917WNA     WN 1959   0.001   1.134   3.100 
  918WNA     WN 1961   0.033   4.205   3.475 
  919WNA     WN 1963   6.124   1.516   4.054 
  920WNA     WN 1965   4.020   4.547   2.379 
  921WNA     WN 1967   1.368   1.159   3.094 
  922WNA     WN 1969   3.138   4.304   5.632 
  923WNA     WN 1971   5.249   3.109   3.684 
  924WNA     WN 1973   6.053   0.921   1.082 
  925WNA     WN 1975   5.315   4.764   1.233 
  926WNA     WN 1977   0.928   0.658   4.850 
  927WNA     WN 1979   4.975   4.642   0.862 
  928WNA     WN 1981   1.704   2.058   5.552 
  929WNA     WN 1983   3.036   3.439   3.553 
  930WNA     WN 1985   3.543   4.163   5.214 
  931WNA     WN 1987   5.115   4.596   4.139 
  932WNA     WN 1989   2.012   2.170   0.811 
  933WNA     WN 1991   3.623   3.106   0.898 
  934WNA     WN 1993   2.923   2.318   4.354 
  935WNA     WN 1995   5.798   3.031   5.090 
  936WNA     WN 1997   2.598   3.489   2.368 
  937WNA     WN 1999   3.606   0.606   0.547 
  938WNA     WN 2001   2.900   2.828   6.153 
  939WNA     WN 2003   5.041   3.842   0.745 
  940WNA     WN 2005   3.328   0.868   2.138 
  941WNA     WN 2007   2.888   4.722   4.768 
  942WNA     WN 2009   1.322   0.943   0.016 
  943WNA     WN 2011   1.515   5.878   5.265 
  944WNA     WN 2013   2.038   0.585   3.410 
  945WNA     WN 2015   0.760   0.076   1.830 
  946WNA     WN 2017   4.251   2.048   3.503 
  947WNA     WN 2019   1.869   3.373   5.424 
  948WNA     WN 2021   6.200   2.679   5.933 
  949WNA     WN 2023   1.886   4.842   2.148 
  950WNA     WN 2025   5.998   0.757   2.926 
  951WNA     WN 2027   3.570   4.704   6.150 
  952WNA     WN 2029   4.287   2.819   0.027 
  953WNA     WN 2031   0.196   1.712   2.756 
  954WNA     WN 2033   3.179   0.552   5.937 
  955WNA     WN 2035   1.969   5.011   5.316 
  956WNA     WN 2037   4.504   2.590   2.507 
  957WNA     WN 2039   4.435   2.162   1.100 
  958WNA     WN 2041   5.673   4.189   3.459 
  959WNA     WN 2043   0.860   2.768   1.295 
  960WNA     WN 2045   3.306   1.660   0.686 
  961WNA     WN 2047   1.469   3.114   3.916 
  962WNA     WN 2049   1.851   0.859   4.802 
  963WNA     WN 2051   5.333   0.009   5.011 
  964WNA     WN 2053   2.760   4.085   5.921 
  965WNA     WN 2055   0.694   5.342   2.086 
  966WNA     WN 2057   3.909   4.194   4.312 
  967WNA     WN 2059   4.273   4.168   5.697 
  968WNA     WN 2061   3.179   6.063   2.105 
  969WNA     WN 2063   5.387   1.093   0.179 
  970WNA     WN 2065   2.351   3.593   1.997 
  971WNA     WN 2067   4.916   5.420   4.400 
  972WNA     WN 2069   0.754   0.311   2.334 
  973WNA     WN 2071   0.561   1.957   1.941 
  974WNA     WN 2073   4.402   3.539   0.305 
  975WNA     WN 2075   2.737   4.587   1.701 
  976WNA     WN 2077   5.426   3.100   0.888 
  977WNA     WN 2079   5.779   5.071   0.501 
  978WNA     WN 2081   4.610   2.412   5.674 
  979WNA     WN 2083   2.717   1.009   1.010 
  980WNA     WN 2085   3.469   3.587   0.828 
  981WNA     WN 2087   4.207   5.732   2.036 
  982WNA     WN 2089   1.165   0.650   2.374 
  983WNA     WN 2091   5.009   0.506   1.392 
  984WNA     WN 2093   3.380   0.391   3.371 
  985WNA     WN 2095   2.740   2.257   0.078 
  986WNA     WN 2097   4.215   6.088   1.132 
  987WNA     WN 2099   1.555   5.184   5.850 
  988WNA     WN 2101   3.003   5.844   2.999 
  989WNA     WN 2103   1.149   4.056   1.718 
  990WNA     WN 2105   2.299   2.515   3.391 
  991WNA     WN 2107   1.097   0.604   0.240 
  992WNA     WN 2109   4.980   0.771   4.537 
  993WNA     WN 2111   2.052   2.468   5.468 
  994WNA     WN 2113   0.444   3.436   3.187 
  995WNA     WN 2115   2.308   5.814   3.588 
  996WNA     WN 2117   1.612   1.519   4.415 
  997WNA     WN 2119   5.483   2.227   1.190 
  998WNA     WN 2121   4.867   5.382   3.608 
  999WNA     WN 2123   1.925   0.248   3.844 
 1000WNA     WN 2125   5.615   5.665   5.433 
 1001WNA     WN 2127   5.738   2.014   0.271 
 1002WNA     WN 2129   2.363   3.328   3.596 
 1003WNA     WN 2131   2.126   3.085   0.787 
 1004WNA     WN 2133   0.994   3.102   1.594 
 1005WNA     WN 2135   3.364   2.099   1.729 
 1006WNA     WN 2137   4.831   6.017   0.661 
 1007WNA     WN 2139   2.433   4.992   1.021 
 1008WNA     WN 2141   2.693   4.053   0.808 
 1009WNA     WN 2143   4.052   3.534   1.831 
 1010WNA     WN 2145   5.027   2.495   2.631 
 1011WNA     WN 2147   2.322   1.900   2.539 
 1012WNA     WN 2149   4.941   5.184   2.583 
 1013WNA     WN 2151   4.969   4.978   3.324 
 1014WNA     WN 2153   0.492   2.879   0.472 
 1015WNA     WN 2155   3.439   1.111   4.459 
 1016WNA     WN 2157   1.972   4.958   4.548 
 1017WNA     WN 2159   0.306   5.141   2.217 
 1018WNA     WN 2161   5.256   0.384   0.945 
 1019WNA     WN 2163   3.439   0.880   5.619 
 1020WNA     WN 2165   3.198   0.042   5.689 
 1021WNA     WN 2167   5.377   4.494   4.637 
 1022WNA     WN 2169   4.655   3.745   4.140 
 1023WNA     WN 2171   2.950   3.185   1.470 
 1024WNA     WN 2173   1.515   0.529   3.729 
 1025WNA     WN 2175   4.435   5.340   3.942 
 1026WNA     WN 2177   0.622   2.164   0.609 
 1027WNA     WN 2179   0.901   0.934   4.001 
 1028WNA     WN 2181   0.146   2.649   4.213 
 1029WNA     WN 2183   1.213   3.918   4.285 
 1030WNA     WN 2185   1.089   2.267   3.314 
 1031WNA     WN 2187   4.470   3.060   2.685 
 1032WNA     WN 2189   2.044   1.285   4.153 
 1033WNA     WN 2191   5.138   4.216   1.584 
 1034WNA     WN 2193   1.369   1.658   3.123 
 1035WNA     WN 2195   3.366   2.496   6.174 
 1036WNA     WN 2197   0.951   2.920   0.421 
 1037WNA     WN 2199   1.997   1.188   0.517 
 1038WNA     WN 2201   5.779   5.914   1.099 
 1039WNA     WN 2203   5.743   1.754   1.513 
 1040WNA     WN 2205   3.037   2.163   4.878 
 1041WNA     WN 2207   3.857   5.066   0.167 
 1042WNA     WN 2209   4.056   5.097   4.188 
 1043WNA     WN 2211   2.042   2.311   2.172 
 1044WNA     WN 2213   5.069   2.643   5.616 
 1045WNA     WN 2215   5.436   0.467   4.476 
 1046WNA     WN 2217   5.389   5.453   1.901 
 1047WNA     WN 2219   5.510   3.841   1.875 
 1048WNA     WN 2221   2.490   2.230   1.023 
 1049WNA     WN 2223   2.444   1.683   5.970 
 1050WNA     WN 2225   3.880   1.461   0.543 
 1051WNA     WN 2227   0.221   2.456   4.984 
 1052WNA     WN 2229   3.265   3.832   2.114 
 1053WNA     WN 2231   3.336   1.447   4.085 
 1054WNA     WN 2233   2.527   1.018   4.066 
 1055WNA     WN 2235   3.357   5.260   5.391 
 1056WNA     WN 2237   4.742   1.322   0.032 
 1057WNA     WN 2239   0.326   1.174   2.288 
 1058WNA     WN 2241   0.587   5.182   3.849 
 1059WNA     WN 2243   2.887   5.247   4.722 
 1060WNA     WN 2245   5.300   0.524   0.093 
 1061WNA     WN 2247   0.833   4.515   5.964 
 1062WNA     WN 2249   3.811   5.583   1.742 
 1063WNA     WN 2251   5.904   4.234   4.556 
 1064WNA     WN 2253   3.884   1.029   0.098 
 1065WNA     WN 2255   4.481   5.642   0.118 
 1066WNA     WN 2257   2.789   3.950   2.096 
 1067WNA     WN 2259   1.551   0.472   0.312 
 1068WNA     WN 2261   2.236   0.140   5.579 
 1069WNA     WN 2263   5.182   0.007   5.590 
 1070WNA     WN 2265   4.976   4.589   6.149 
 1071WNA     WN 2267   2.949   3.180   2.526 
 1072WNA     WN 2269   0.586   5.803   1.865 
 1073WNA     WN 2271   3.235   2.515   3.524 
 1074WNA     WN 2273   1.251   4.667   2.499 
 1075WNA     WN 2275   0.021   0.533   0.769 
 1076WNA     WN 2277   4.204   0.246   0.790 
 1077WNA     WN 2279   0.837   4.981   4.932 
 1078WNA     WN 2281   1.241   2.672   3.064 
 1079WNA     WN 2283   2.511   4.480   5.697 
 1080WNA     WN 2285   4.989   2.992   2.881 
 1081WNA     WN 2287   3.666   1.438   5.011 
 1082WNA     WN 2289   3.486   2.802   5.092 
 1083WNA     WN 2291   1.966   2.198   2.659 
 1084WNA     WN 2293   0.561   0.969   1.891 
 1085WNA     WN 2295   1.694   2.431   6.192 
 1086WNA     WN 2297   5.793   2.227   0.833 
 1087WNA     WN 2299   2.362   0.481   3.984 
 1088WNA     WN 2301   3.816   1.024   0.924 
 1089WNA     WN 2303   5.603   3.375   2.080 
 1090WNA     WN 2305   5.327   2.840   2.362 
 1091WNA     WN 2307   4.965   4.147   4.210 
 1092WNA     WN 2309   4.769   3.050   5.728 
 1093WNA     WN 2311   3.453   5.189   2.475 
 1094WNA     WN 2313   4.634   2.555   0.298 
 1095WNA     WN 2315   5.249   0.036   3.844 
 1096WNA     WN 2317   2.469   3.733   6.164 
 1097WNA     WN 2319   3.953   0.984   2.749 
 1098WNA     WN 2321   5.471   4.345   5.098 
 1099WNA     WN 2323   1.992   0.613   5.622 
 1100WNA     WN 2325   2.098   4.116   0.632 
 1101WNA     WN 2327   3.974   2.973   1.238 
 1102WNA     WN 2329   2.992   5.545   0.165 
 1103WNA     WN 2331   5.425   5.409   0.437 
 1104WNA     WN 2333   5.646   5.729   0.043 
 1105WNA     WN 2335   5.442   2.067   1.764 
 1106WNA     WN 2337   1.360   1.383   5.278 
 1107WNA     WN 2339   5.107   0.953   1.689 
 1108WNA     WN 2341   1.218   2.817   6.181 
 1109WNA     WN 2343   4.786   1.065   5.243 
 1110WNA     WN 2345   2.887   0.613   3.355 
 1111WNA     WN 2347   4.096   3.351   5.372 
 1112WNA     WN 2349   5.839   0.704   0.135 
 1113WNA     WN 2351   2.581   4.354   0.419 
 1114WNA     WN 2353   3.772   0.845   3.536 
 1115WNA     WN 2355   4.741   1.318   3.317 
 1116WNA     WN 2357   4.983   4.791   5.626 
 1117WNA     WN 2359   0.977   3.448   6.068 
 1118WNA     WN 2361   3.966   1.981   1.459 
 1119WNA     WN 2363   5.273   2.640   0.914 
 1120WNA     WN 2365   5.051   0.209   4.302 
 1121WNA     WN 2367   3.836   6.114   2.184 
 1122WNA     WN 2369   2.608   1.085   4.524 
 1123WNA     WN 2371   4.489   4.975   3.332 
 1124WNA     WN 2373   2.541   3.976   2.540 
 1125WNA     WN 2375   4.700   5.459   2.006 
 1126WNA     WN 2377   3.817   3.729   4.105 
 1127WNA     WN 2379   0.490   0.242   4.508 
 1128WNA     WN 2381   1.261   5.912   3.880 
 1129WNA     WN 2383   4.201   5.861   1.564 
 1130WNA     WN 2385   0.501   3.138   3.909 
 1131WNA     WN 2387   2.169   2.621   0.957 
 1132WNA     WN 2389   2.150   2.111   3.224 
 1133WNA     WN 2391   2.736   5.418   4.048 
 1134WNA     WN 2393   4.318   4.118   3.512 
 1135WNA     WN 2395   5.305   5.736   5.792 
 1136WNA     WN 2397   0.188   0.451   5.587 
 1137WNA     WN 2399   1.016   4.753   2.061 
 1138WNA     WN 2401   0.681   0.797   2.495 
 1139WNA     WN 2403   5.025   2.193   3.956 
 1140WNA     WN 2405   3.514   1.168   2.498 
 1141WNA     WN 2407   0.638   5.720   2.577 
 1142WNA     WN 2409   1.029   5.496   1.246 
 1143WNA     WN 2411   1.288   2.764   0.773 
 1144WNA     WN 2413   2.747   4.090   4.089 
 1145WNA     WN 2415   4.518   1.034   1.869 
 1146WNA     WN 2417   4.115   2.469   3.824 
 1147WNA     WN 2419   2.108   2.742   5.880 
 1148WNA     WN 2421   0.266   2.588   2.502 
 1149WNA     WN 2423   2.843   0.080   3.476 
 1150WNA     WN 2425   6.026   2.206   6.192 
 1151WNA     WN 2427   3.806   2.839   0.472 
 1152WNA     WN 2429   0.875   1.311   3.586 
 1153WNA     WN 2431   0.839   4.322   1.140 
 1154WNA     WN 2433   5.857   2.984   1.442 
 1155WNA     WN 2435   2.774   5.236   3.613 
 1156WNA     WN 2437   4.973   5.921   1.774 
 1157WNA     WN 2439   0.534   5.752   3.775 
 1158WNA     WN 2441   2.234   5.629   0.067 
 1159WNA     WN 2443   1.885   0.063   4.399 
 1160WNA     WN 2445   1.981   1.421   5.589 
 1161WNA     WN 2447   3.210   4.153   6.172 
 1162WNA     WN 2449   2.318   5.909   5.295 
 1163WNA     WN 2451   5.667   0.633   2.249 
 1164WNA     WN 2453   5.907   5.644   2.643 
 1165WNA     WN 2455   4.652   3.768   3.180 
 1166WNA     WN 2457   4.899   3.918   1.309 
 1167WNA     WN 2459   4.254   4.287   0.583 
 1168WNA     WN 2461   2.834   4.608   0.821 
 1169WNA     WN 2463   3.558   1.875   1.141 
 1170WNA     WN 2465   1.481   1.031   1.574 
 1171WNA     WN 2467   5.918   1.783   5.555 
 1172WNA     WN 2469   5.156   0.138   0.404 
 1173WNA     WN 2471   3.632   3.506   3.148 
 1174WNA     WN 2473   4.864   0.408   0.088 
 1175WNA     WN 2475   1.618   3.821   3.434 
 1176WNA     WN 2477   5.238   5.412   3.978 
 1177WNA     WN 2479   1.230   1.448   1.800 
 1178WNA     WN 2481   2.759   5.030   2.514 
 1179WNA     WN 2483   4.867   3.446   0.379 
 1180WNA     WN 2485   4.358   3.543   2.862 
 1181WNA     WN 2487   3.191   5.356   3.811 
 1182WNA     WN 2489   0.683   5.834   1.359 
 1183WNA     WN 2491   3.470   1.496   0.104 
 1184WNA     WN 2493   2.943   1.620   6.134 
 1185WNA     WN 2495   6.089   0.564   4.845 
 1186WNA     WN 2497   2.995   3.142   0.786 
 1187WNA     WN 2499   5.619   0.836   5.388 
 1188WNA     WN 2501   1.130   2.205   0.705 
 1189WNA     WN 2503   3.692   1.317   2.930 
 1190WNA     WN 2505   5.524   2.865   4.629 
 1191WNA     WN 2507   4.570   2.430   4.001 
 1192WNA     WN 2509   3.503   0.233   2.139 
 1193WNA     WN 2511   5.600   5.872   4.078 
 1194WNA     WN 2513   4.296   4.181   2.998 
 1195WNA     WN 2515   5.341   1.455   4.263 
 1196WNA     WN 2517   2.877   4.976   5.614 
 1197WNA     WN 2519   1.329   2.994   3.448 
 1198WNA     WN 2521   5.515   2.418   2.569 
 1199WNA     WN 2523   5.282   5.445   1.317 
 1200WNA     WN 2525   3.049   1.177   2.652 
 1201WNA     WN 2527   1.046   5.822   5.522 
 1202WNA     WN 2529   0.777   3.818   2.116 
 1203WNA     WN 2531   4.552   1.952   3.124 
 1204WNA     WN 2533   1.027   5.723   4.436 
 1205WNA     WN 2535   3.309   4.552   0.783 
 1206WNA     WN 2537   1.917   0.824   2.949 
 1207WNA     WN 2539   0.784   4.546   0.644 
 1208WNA     WN 2541   5.690   4.597   2.211 
 1209WNA     WN 2543   4.392   0.904   2.900 
 1210WNA     WN 2545   3.516   5.083   3.055 
 1211WNA     WN 2547   4.648   5.676   4.877 
 1212WNA     WN 2549   2.640   2.713   2.501 
 1213WNA     WN 2551   2.409   3.403   4.617 
 1214WNA     WN 2553   0.156   3.684   5.090 
 1215WNA     WN 2555   1.028   5.076   0.782 
 1216WNA     WN 2557   2.075   1.399   6.220 
 1217WNA     WN 2559   4.769   4.500   0.389 
 1218WNA     WN 2561   4.506   5.782   4.397 
 1219WNA     WN 2563   2.711   0.167   5.779 
 1220WNA     WN 2565   3.607   1.247   2.037 
 1221WNA     WN 2567   0.989   4.395   4.204 
 1222WNA     WN 2569   1.749   4.346   2.354 
 1223WNA     WN 2571   5.603   0.162   4.128 
 1224WNA     WN 2573   3.681   4.292   5.788 
 1225WNA     WN 2575   5.119   2.726   3.988 
 1226WNA     WN 2577   3.047   4.811   2.970 
 1227WNA     WN 2579   1.445   3.008   1.735 
 1228WNA     WN 2581   2.274   3.992   5.762 
 1229WNA     WN 2583   5.521   1.524   0.008 
 1230WNA     WN 2585   0.013   3.260   5.231 
 1231WNA     WN 2587   4.700   5.896   2.920 
 1232WNA     WN 2589   2.639   0.564   4.367 
 1233WNA     WN 2591   0.578   2.178   3.331 
 1234WNA     WN 2593   4.429   3.263   3.985 
 1235WNA     WN 2595   3.710   0.648   1.928 
 1236WNA     WN 2597   2.208   3.436   0.171 
 1237WNA     WN 2599   1.539   3.689   5.671 
 1238WNA     WN 2601   2.713   1.727   5.149 
 1239WNA     WN 2603   3.815   0.175   2.626 
 1240WNA     WN 2605   0.980   3.545   2.493 
 1241WNA     WN 2607   4.487   0.424   5.970 
 1242WNA     WN 2609   0.629   0.723   3.594 
 1243WNA     WN 2611   2.770   3.594   3.997 
 1244WNA     WN 2613   3.838   2.131   4.513 
 1245WNA     WN 2615   6.209   2.646   5.412 
 1246WNA     WN 2617   2.930   0.159   4.302 
 1247WNA     WN 2619   5.488   2.519   3.096 
 1248WNA     WN 2621   5.137   1.525   0.331 
 1249WNA     WN 2623   3.474   0.981   1.573 
 1250WNA     WN 2625   3.108   2.127   2.200 
 1251WNA     WN 2627   3.915   2.244   0.786 
 1252WNA     WN 2629   1.136   0.876   3.612 
 1253WNA     WN 2631   1.516   1.018   1.063 
 1254WNA     WN 2633   0.152   4.250   1.864 
 1255WNA     WN 2635   2.697   5.824   0.954 
 1256WNA     WN 2637   6.035   5.754   5.727 
 1257WNA     WN 2639   2.265   0.014   1.494 
 1258WNA     WN 2641   2.724   5.539   3.222 
 1259WNA     WN 2643   1.955   5.465   4.220 
 1260WNA     WN 2645   0.443   4.618   2.208 
 1261WNA     WN 2647   3.587   5.144   4.386 
 1262WNA     WN 2649   0.358   4.180   2.358 
 1263WNA     WN 2651   4.154   6.000   3.481 
 1264WNA     WN 2653   2.900   3.583   1.105 
 1265WNA     WN 2655   1.747   0.646   5.192 
 1266WNA     WN 2657   1.215   0.708   1.402 
 1267WNA     WN 2659   5.233   0.079   6.124 
 1268WNA     WN 2661   4.184   4.700   5.172 
 1269WNA     WN 2663   5.415   3.386   4.076 
 1270WNA     WN 2665   1.749   0.619   1.348 
 1271WNA     WN 2667   3.979   5.064   4.677 
 1272WNA     WN 2669   2.358   4.635   4.554 
 1273WNA     WN 2671   2.405   1.439   3.349 
 1274WNA     WN 2673   4.866   6.135   4.737 
 1275WNA     WN 2675   0.114   1.394   0.312 
 1276WNA     WN 2677   4.230   2.275   2.959 
 1277WNA     WN 2679   4.072   2.750   1.730 
 1278WNA     WN 2681   2.981   3.876   1.573 
 1279WNA     WN 2683   2.431   3.658   0.912 
 1280WNA     WN 2685   4.079   5.985   4.234 
 1281WNA     WN 2687   3.370   0.627   3.821 
 1282WNA     WN 2689   5.075   1.737   4.992 
 1283WNA     WN 2691   5.219   1.237   3.344 
 1284WNA     WN 2693   5.388   1.846   3.838 
 1285WNA     WN 2695   0.795   1.440   1.388 
 1286WNA     WN 2697   6.077   2.555   3.802 
 1287WNA     WN 2699   1.031   2.231   1.206 
 1288WNA     WN 2701   3.702   0.123   0.531 
 1289WNA     WN 2703   2.771   5.737   2.097 
 1290WNA     WN 2705   3.055   1.961   1.052 
 1291WNA     WN 2707   5.838   2.902   2.255 
 1292WNA     WN 2709   3.691   1.600   1.648 
 1293WNA     WN 2711   5.469   0.935   3.649 
 1294WNA     WN 2713   1.670   4.020   1.998 
 1295WNA     WN 2715   0.938   3.626   4.587 
 1296WNA     WN 2717   3.296   4.278   2.762 
 1297WNA     WN 2719   6.020   0.295   2.683 
 1298WNA     WN 2721   3.967   1.229   4.377 
 1299WNA     WN 2723   1.485   2.598   4.252 
 1300WNA     WN 2725   1.709   3.637   5.002 
 1301WNA     WN 2727   4.259   4.053   1.890 
 1302WNA     WN 2729   3.092   0.814   4.626 
 1303WNA     WN 2731   4.324   0.307   0.232 
 1304WNA     WN 2733   6.057   3.247   1.890 
 1305WNA     WN 2735   0.059   3.520   5.665 
 1306WNA     WN 2737   5.787   3.069   4.049 
 1307WNA     WN 2739   3.056   3.369   3.042 
 1308WNA     WN 2741   5.021   1.190   2.124 
 1309WNA     WN 2743   2.456   1.268   0.688 
 1310WNA     WN 2745   1.729   2.880   2.222 
 1311WNA     WN 2747   1.320   0.610   0.790 
 1312WNA     WN 2749   0.275   6.061   1.500 
 1313WNA     WN 2751   2.242   2.794   3.835 
 1314WNA     WN 2753   5.510   5.087   1.561 
 1315WNA     WN 2755   0.544   1.359   4.040 
 1316WNA     WN 2757   5.484   2.538   5.943 
 1317WNA     WN 2759   4.746   4.830   2.894 
 1318WNA     WN 2761   2.060   5.503   5.279 
 1319WNA     WN 2763   3.358   6.017   2.605 
 1320WNA     WN 2765   4.712   4.775   5.092 
 1321WNA     WN 2767   0.919   1.421   2.978 
 1322WNA     WN 2769   4.332   0.701   5.146 
 1323WNA     WN 2771   2.804   5.929   4.152 
 1324WNA     WN 2773   4.474   1.573   5.618 
 1325WNA     WN 2775   5.157   4.196   0.030 
 1326WNA     WN 2777   2.040   5.193   5.929 
 1327WNA     WN 2779   1.412   1.713   5.641 
 1328WNA     WN 2781   5.825   4.397   3.068 
 1329WNA     WN 2783   2.708   2.971   5.160 
 1330WNA     WN 2785   3.240   3.777   5.810 
 1331WNA     WN 2787   4.573   1.740   0.809 
 1332WNA     WN 2789   4.817   5.233   4.893 
 1333WNA     WN 2791   2.495   0.902   3.544 
 1334WNA     WN 2793   2.312   5.203   0.170 
 1335WNA     WN 2795   5.995   2.446   2.946 
 1336WNA     WN 2797   3.030   5.276   2.871 
 1337WNA     WN 2799   3.752   4.106   6.181 
 1338WNA     WN 2801   3.925   4.580   0.272 
 1339WNA     WN 2803   2.929   1.795   0.390 
 1340WNA     WN 2805   5.595   5.622   3.119 
 1341WNA     WN 2807   3.823   3.129   1.959 
 1342WNA     WN 2809   0.044   4.655   4.594 
 1343WNA     WN 2811   0.712   3.294   1.993 
 1344WNA     WN 2813   4.887   3.001   5.123 
 1345WNA     WN 2815   1.694   1.860   1.190 
 1346WNA     WN 2817   5.379   2.318   3.569 
 1347WNA     WN 2819   5.483   6.104   3.260 
 1348WNA     WN 2821   4.559   0.024   3.431 
 1349WNA     WN 2823   6.030   1.183   3.553 
 1350WNA     WN 2825   5.499   4.552   0.212 
 1351WNA     WN 2827   3.498   4.872   0.465 
 1352WNA     WN 2829   1.717   3.366   3.393 
 1353WNA     WN 2831   0.573   5.406   1.589 
 1354WNA     WN 2833   6.027   1.884   1.101 
 1355WNA     WN 2835   3.711   2.905   3.104 
 1356WNA     WN 2837   4.829   3.952   5.132 
 1357WNA     WN 2839   1.356   2.902   2.562 
 1358WNA     WN 2841   0.153   0.839   1.655 
 1359WNA     WN 2843   0.974   3.215   3.731 
 1360WNA     WN 2845   0.150   4.676   3.715 
 1361WNA     WN 2847   4.514   4.988   1.543 
 1362WNA     WN 2849   0.218   2.242   2.876 
 1363WNA     WN 2851   0.418   0.886   4.089 
 1364WNA     WN 2853   4.399   3.722   1.215 
 1365WNA     WN 2855   4.299   0.727   1.052 
 1366WNA     WN 2857   0.269   4.172   4.734 
 1367WNA     WN 2859   5.832   6.026   2.910 
 1368WNA     WN 2861   5.436   3.156   3.230 
 1369WNA     WN 2863   4.527   1.938   3.937 
 1370WNA     WN 2865   5.001   5.745   5.293 
 1371WNA     WN 2867   0.607   3.162   4.393 
 1372WNA     WN 2869   4.143   0.156   3.088 
 1373WNA     WN 2871   0.710   3.355   0.434 
 1374WNA     WN 2873   5.288   4.226   3.781 
 1375WNA     WN 2875   4.571   1.166   4.783 
 1376WNA     WN 2877   4.812   3.481   5.460 
 1377WNA     WN 2879   4.728   1.435   1.682 
 1378WNA     WN 2881   4.070   6.095   0.098 
 1379WNA     WN 2883   5.470   3.330   1.591 
 1380WNA     WN 2885   6.196   3.810   4.504 
 1381WNA     WN 2887   0.406   1.973   0.112 
 1382WNA     WN 2889   0.638   0.915   0.202 
 1383WNA     WN 2891   3.460   5.868   1.670 
 1384WNA     WN 2893   5.110   1.307   3.857 
 1385WNA     WN 2895   5.200   0.829   5.005 
 1386WNA     WN 2897   3.647   3.282   5.151 
 1387WNA     WN 2899   1.707   3.915   4.469 
 1388WNA     WN 2901   3.672   0.664   2.485 
 1389WNA     WN 2903   3.345   3.905   3.860 
 1390WNA     WN 2905   0.832   2.580   6.036 
 1391WNA     WN 2907   3.703   6.070   3.812 
 1392WNA     WN 2909   0.163   4.618   0.016 
 1393WNA     WN 2911   5.389   1.531   1.982 
 1394WNA     WN 2913   0.583   3.683   2.803 
 1395WNA     WN 2915   5.310   5.405   5.132 
 1396WNA     WN 2917   1.244   0.037   0.274 
 1397WNA     WN 2919   2.814   5.078   0.072 
 1398WNA     WN 2921   3.258   4.775   5.351 
 1399WNA     WN 2923   3.553   2.638   2.479 
 1400WNA     WN 2925   4.600   1.624   5.134 
 1401WNA     WN 2927   6.179   5.719   3.100 
 1402WNA     WN 2929   5.571   2.463   2.023 
 1403WNA     WN 2931   2.338   6.215   4.894 
 1404WNA     WN 2933   6.185   4.300   2.777 
 1405WNA     WN 2935   2.787   1.825   1.704 
 1406WNA     WN 2937   4.224   5.802   2.934 
 1407WNA     WN 2939   4.080   5.064   3.691 
 1408WNA     WN 2941   0.417   6.215   4.006 
 1409WNA     WN 2943   0.241   5.623   2.303 
 1410WNA     WN 2945   3.180   0.415   4.941 
 1411WNA     WN 2947   4.795   4.104   1.911 
 1412WNA     WN 2949   4.087   1.606   4.755 
 1413WNA     WN 2951   1.760   2.104   0.337 
 1414WNA     WN 2953   2.501   3.826   0.397 
 1415WNA     WN 2955   2.517   5.509   1.710 
 1416WNA     WN 2957   3.586   0.664   4.643 
 1417WNA     WN 2959   1.477   5.289   1.426 
 1418WNA     WN 2961   3.169   2.609   1.779 
 1419WNA     WN 2963   2.503   4.149   5.225 
 1420WNA     WN 2965   3.732   6.026   2.976 
 1421WNA     WN 2967   3.555   2.854   3.873 
 1422WNA     WN 2969   3.177   2.112   6.011 
 1423WNA     WN 2971   3.726   3.896   1.887 
 1424WNA     WN 2973   2.794   5.841   5.113 
 1425WNA     WN 2975   0.038   5.817   4.763 
 1426WNA     WN 2977   3.628   2.442   1.575 
 1427WNA     WN 2979   1.528   3.993   3.927 
 1428WNA     WN 2981   0.610   1.241   0.674 
 1429WNA     WN 2983   3.560   2.720   2.024 
 1430WNA     WN 2985   0.904   3.616   1.672 
 1431WNA     WN 2987   3.368   3.489   1.708 
 1432WNA     WN 2989   1.114   1.923   0.258 
 1433WNA     WN 2991   1.824   1.344   3.105 
 1434WNA     WN 2993   0.987   2.693   4.495 
 1435WNA     WN 2995   0.989   5.760   3.441 
 1436WNA     WN 2997   3.734   1.624   2.508 
 1437WNA     WN 2999   4.041   2.042   4.016 
 1438WNA     WN 3001   3.282   5.533   3.309 
 1439WNA     WN 3003   1.811   5.988   5.632 
 1440WNA     WN 3005   0.637   5.271   2.858 
 1441WNA     WN 3007   5.177   0.640   3.903 
 1442WNA     WN 3009   1.464   1.997   2.528 
 1443WNA     WN 3011   4.918   3.484   4.976 
 1444WNA     WN 3013   1.149   1.418   6.014 
 1445WNA     WN 3015   5.138   1.321   4.776 
 1446WNA     WN 3017   1.753   5.263   0.094 
 1447WNA     WN 3019   2.559   4.083   3.118 
 1448WNA     WN 3021   2.630   3.220   3.231 
 1449WNA     WN 3023   5.919   5.274   5.373 
 1450WNA     WN 3025   2.832   1.363   4.198 
 1451WNA     WN 3027   1.191   4.019   3.459 
 1452WNA     WN 3029   2.322   1.957   1.906 
 1453WNA     WN 3031   4.775   3.447   2.527 
 1454WNA     WN 3033   0.735   3.763   0.841 
 1455WNA     WN 3035   0.480   5.551   0.081 
 1456WNA     WN 3037   0.436   2.386   4.521 
 1457WNA     WN 3039   2.316   1.109   1.929 
 1458WNA     WN 3041   0.271   0.332   4.953 
 1459WNA     WN 3043   6.175   1.874   0.421 
 1460WNA     WN 3045   5.401   0.850   3.096 
 1461WNA     WN 3047   3.326   5.045   0.033 
 1462WNA     WN 3049   4.683   5.499   1.503 
 1463WNA     WN 3051   1.389   2.691   1.334 
 1464WNA     WN 3053   2.828   3.345   4.439 
 1465WNA     WN 3055   1.786   1.679   2.728 
 1466WNA     WN 3057   4.675   4.441   3.268 
 1467WNA     WN 3059   1.646   0.699   2.263 
 1468WNA     WN 3061   3.189   1.300   1.821 
 1469WNA     WN 3063   2.334   5.688   1.331 
 1470WNA     WN 3065   1.141   0.199   1.479 
 1471WNA     WN 3067   3.037   3.901   3.103 
 1472WNA     WN 3069   4.053   5.611   3.804 
 1473WNA     WN 3071   1.674   2.901   0.118 
 1474WNA     WN 3073   2.798   2.763   3.487 
 1475WNA     WN 3075   1.836   0.204   5.352 
 1476WNA     WN 3077   6.098   5.747   5.205 
 1477WNA     WN 3079   0.428   2.957   1.792 
 1478WNA     WN 3081   5.427   3.329   4.801 
 1479WNA     WN 3083   1.856   4.320   1.422 
 1480WNA     WN 3085   0.689   5.197   1.136 
 1481WNA     WN 3087   5.753   4.738   4.715 
 1482WNA     WN 3089   3.123   0.629   0.729 
 1483WNA     WN 3091   3.886   2.390   6.076 
 1484WNA     WN 3093   2.524   6.022   3.103 
 1485WNA     WN 3095   0.968   1.676   5.252 
 1486WNA     WN 3097   0.430   1.603   6.012 
 1487WNA     WN 3099   6.029   3.552   3.901 
 1488WNA     WN 3101   4.305   3.188   1.634 
 1489WNA     WN 3103   0.812   4.605   4.625 
 1490WNA     WN 3105   4.771   2.206   4.365 
 1491WNA     WN 3107   3.576   4.370   1.181 
 1492WNA     WN 3109   1.822   0.551   4.266 
 1493WNA     WN 3111   5.957   3.132   5.645 
 1494WNA     WN 3113   0.806   2.058   4.492 
 1495WNA     WN 3115   3.818   4.550   0.750 
 1496WNA     WN 3117   4.303   1.202   5.252 
 1497WNA     WN 3119   0.352   2.928   5.142 
 1498WNA     WN 3121   2.883   4.593   4.286 
 1499WNA     WN 3123   5.963   2.258   1.454 
 1500WNA     WN 3125   4.132   4.902   2.104 
 1501WNA     WN 3127   2.018   2.491   4.250 
 1502WNA     WN 3129   2.512   0.899   1.495 
 1503WNA     WN 3131   1.972   4.775   1.631 
 1504WNA     WN 3133   5.816   3.899   2.896 
 1505WNA     WN 3135   2.328   0.311   0.507 
 1506WNA     WN 3137   2.333   6.068   0.335 
 1507WNA     WN 3139   3.085   2.646   2.285 
 1508WNA     WN 3141   2.700   5.378   5.939 
 1509WNA     WN 3143   4.308   1.679   0.325 
 1510WNA     WN 3145   1.260   2.118   5.276 
 1511WNA     WN 3147   0.851   1.143   2.211 
 1512WNA     WN 3149   1.874   5.759   1.550 
 1513WNA     WN 3151   3.704   3.224   3.555 
 1514WNA     WN 3153   2.787   2.888   1.883 
 1515WNA     WN 3155   2.058   4.300   5.465 
 1516WNA     WN 3157   3.347   6.100   4.256 
 1517WNA     WN 3159   4.972   5.961   3.639 
 1518WNA     WN 3161   0.674   3.289   1.313 
 1519WNA     WN 3163   4.402   4.229   4.505 
 1520WNA     WN 3165   1.891   2.106   1.716 
 1521WNA     WN 3167   5.907   4.152   3.912 
 1522WNA     WN 3169   2.097   2.092   5.126 
 1523WNA     WN 3171   2.448   4.913   5.936 
 1524WNA     WN 3173   4.609   5.733   3.353 
 1525WNA     WN 3175   1.884   6.120   1.193 
 1526WNA     WN 3177   5.049   2.787   3.383 
 1527WNA     WN 3179   3.884   2.617   4.222 
 1528WNA     WN 3181   0.967   2.019   2.195 
 1529WNA     WN 3183   4.637   3.333   4.549 
 1530WNA     WN 3185   0.320   4.887   5.005 
 1531WNA     WN 3187   0.265   1.995   4.798 
 1532WNA     WN 3189   5.249   6.184   2.075 
 1533WNA     WN 3191   2.089   1.642   0.908 
 1534WNA     WN 3193   4.592   0.666   4.043 
 1535WNA     WN 3195   1.941   4.717   5.692 
 1536WNA     WN 3197   4.419   2.018   5.395 
 1537WNA     WN 3199   2.727   5.329   1.270 
 1538WNA     WN 3201   5.122   5.716   2.723 
 1539WNA     WN 3203   4.319   1.972   4.429 
 1540WNA     WN 3205   5.118   1.990   2.677 
 1541WNA     WN 3207   3.064   4.322   2.325 
 1542WNA     WN 3209   0.620   4.583   0.173 
 1543WNA     WN 3211   2.011   5.411   0.477 
 1544WNA     WN 3213   6.101   5.752   4.180 
 1545WNA     WN 3215   3.248   4.170   4.625 
 1546WNA     WN 3217   5.664   2.487   0.196 
 1547WNA     WN 3219   4.115   2.277   1.866 
 1548WNA     WN 3221   4.047   3.220   2.940 
 1549WNA     WN 3223   0.427   1.586   4.469 
 1550WNA     WN 3225   3.986   5.397   5.501 
 1551WNA     WN 3227   4.544   4.384   2.577 
 1552WNA     WN 3229   1.463   3.433   2.528 
 1553WNA     WN 3231   3.705   3.769   4.636 
 1554WNA     WN 3233   3.755   2.235   3.085 
 1555WNA     WN 3235   0.237   1.632   1.470 
 1556WNA     WN 3237   5.513   0.458   2.714 
 1557WNA     WN 3239   0.077   3.876   3.111 
 1558WNA     WN 3241   1.920   1.786   5.971 
 1559WNA     WN 3243   1.993   3.691   3.683 
 1560WNA     WN 3245   3.748   0.093   3.398 
 1561WNA     WN 3247   3.241   3.603   2.693 
 1562WNA     WN 3249   3.633   2.643   1.046 
 1563WNA     WN 3251   6.043   5.997   0.072 
 1564WNA     WN 3253   5.258   2.261   5.045 
 1565WNA     WN 3255   1.206   6.165   1.916 
 1566WNA     WN 3257   2.867   1.832   2.426 
 1567WNA     WN 3259   0.474   4.939   4.569 
 1568WNA     WN 3261   0.988   0.281   4.515 
 1569WNA     WN 3263   2.171   1.574   5.118 
 1570WNA     WN 3265   0.289   4.820   2.661 
 1571WNA     WN 3267   0.838   0.980   1.153 
 1572WNA     WN 3269   0.822   2.612   0.754 
 1573WNA     WN 3271   4.377   2.365   6.176 
 1574WNA     WN 3273   0.832   0.253   6.203 
 1575WNA     WN 3275   0.987   1.453   4.436 
 1576WNA     WN 3277   4.074   0.923   4.785 
 1577WNA     WN 3279   0.599   4.924   1.811 
 1578WNA     WN 3281   0.844   4.134   4.618 
 1579WNA     WN 3283   2.688   0.420   1.554 
 1580WNA     WN 3285   0.439   0.100   0.618 
 1581WNA     WN 3287   4.772   5.390   3.055 
 1582WNA     WN 3289   4.651   2.899   3.712 
 1583WNA     WN 3291   1.077   6.169   5.221 
 1584WNA     WN 3293   1.895   2.632   2.929 
 1585WNA     WN 3295   3.615   5.904   5.122 
 1586WNA     WN 3297   5.519   2.936   0.428 
 1587WNA     WN 3299   1.273   5.979   5.971 
 1588WNA     WN 3301   1.377   6.090   2.421 
 1589WNA     WN 3303   0.093   1.503   5.633 
 1590WNA     WN 3305   6.061   4.164   2.304 
 1591WNA     WN 3307   2.496   4.664   2.111 
 1592WNA     WN 3309   4.328   0.018   1.844 
 1593WNA     WN 3311   5.849   6.116   3.626 
 1594WNA     WN 3313   4.527   5.541   5.362 
 1595WNA     WN 3315   3.281   4.749   2.507 
 1596WNA     WN 3317   3.369   2.407   4.171 
 1597WNA     WN 3319   2.658   0.148   5.244 
 1598WNA     WN 3321   3.409   3.342   4.619 
 1599WNA     WN 3323   2.512   5.733   2.702 
 1600WNA     WN 3325   2.985   2.546   5.237 
 1601WNA     WN 3327   1.588   3.169   4.978 
 1602WNA     WN 3329   0.531   2.247   5.430 
 1603WNA     WN 3331   0.951   0.476   2.814 
 1604WNA     WN 3333   5.853   0.822   4.541 
 1605WNA     WN 3335   3.003   0.665   2.780 
 1606WNA     WN 3337   1.946   2.552   0.555 
 1607WNA     WN 3339   0.109   0.001   4.413 
 1608WNA     WN 3341   3.540   2.304   5.738 
 1609WNA     WN 3343   5.508   5.876   2.467 
 1610WNA     WN 3345   1.920   1.377   1.290 
 1611WNA     WN 3347   0.432   6.086   2.311 
 1612WNA     WN 3349   6.191   1.643   6.174 
 1613WNA     WN 3351   2.616   5.106   1.982 
 1614WNA     WN 3353   4.655   4.257   6.084 
 1615WNA     WN 3355   2.852   5.811   3.573 
 1616WNA     WN 3357   5.093   4.290   5.769 
 1617WNA     WN 3359   2.117   3.014   3.260 
 1618WNA     WN 3361   5.074   4.461   2.775 
 1619WNA     WN 3363   4.785   2.425   0.721 
 1620WNA     WN 3365   1.407   4.608   5.711 
 1621WNA     WN 3367   1.192   4.990   3.904 
 1622WNA     WN 3369   3.270   0.297   2.577 
 1623WNA     WN 3371   5.823   1.324   4.408 
 1624WNA     WN 3373   1.437   6.032   1.434 
 1625WNA     WN 3375   2.740   5.326   0.773 
 1626WNA     WN 3377   0.984   4.504   3.254 
 1627WNA     WN 3379   0.913   3.981   3.875 
 1628WNA     WN 3381   0.626   2.702   4.111 
 1629WNA     WN 3383   2.696   1.294   1.723 
 1630WNA     WN 3385   4.029   4.191   5.265 
 1631WNA     WN 3387   5.034   3.044   4.618 
 1632WNA     WN 3389   1.020   5.517   5.094 
 1633WNA     WN 3391   0.293   0.786   5.108 
 1634WNA     WN 3393   1.901   0.819   0.226 
 1635WNA     WN 3395   3.531   3.821   1.319 
 1636WNA     WN 3397   3.761   0.306   3.856 
 1637WNA     WN 3399   0.014   6.109   0.543 
 1638WNA     WN 3401   0.306   0.533   3.225 
 1639WNA     WN 3403   4.715   5.861   5.655 
 1640WNA     WN 3405   1.451   3.310   5.934 
 1641WNA     WN 3407   0.989   5.128   1.634 
 1642WNA     WN 3409   4.919   5.247   5.672 
 1643WNA     WN 3411   3.820   5.014   1.766 
 1644WNA     WN 3413   3.470   1.075   3.804 
 1645WNA     WN 3415   5.676   2.011   2.949 
 1646WNA     WN 3417   4.489   1.931   6.050 
 1647WNA     WN 3419   4.981   4.916   4.605 
 1648WNA     WN 3421   3.169   4.027   1.002 
 1649WNA     WN 3423   5.066   0.501   2.934 
 1650WNA     WN 3425   3.329   5.980   4.737 
 1651WNA     WN 3427   2.262   2.182   5.836 
 1652WNA     WN 3429   2.343   3.258   2.758 
 1653WNA     WN 3431   3.491   2.352   5.235 
 1654WNA     WN 3433   3.621   1.342   3.447 
 1655WNA     WN 3435   5.672   1.935   5.987 
 1656WNA     WN 3437   1.884   1.811   2.248 
 1657WNA     WN 3439   2.747   2.109   5.840 
 1658WNA     WN 3441   3.218   2.401   1.321 
 1659WNA     WN 3443   4.799   0.670   2.107 
 1660WNA     WN 3445   1.664   1.076   5.533 
 1661WNA     WN 3447   5.438   3.906   4.271 
 1662WNA     WN 3449   1.394   0.052   4.604 
 1663WNA     WN 3451   4.514   2.434   1.511 
 1664WNA     WN 3453   1.592   5.884   4.309 
 1665WNA     WN 3455   4.371   5.119   1.062 
 1666WNA     WN 3457   4.341   3.013   0.463 
 1667WNA     WN 3459   0.134   1.289   1.803 
 1668WNA     WN 3461   2.552   4.840   0.445 
 1669WNA     WN 3463   5.931   1.220   0.017 
 1670WNA     WN 3465   5.288   5.168   0.917 
 1671WNA     WN 3467   5.445   5.380   2.504 
 1672WNA     WN 3469   0.122   2.474   1.978 
 1673WNA     WN 3471   0.163   3.060   0.096 
 1674WNA     WN 3473   1.980   5.258   1.409 
 1675WNA     WN 3475   3.934   3.855   0.493 
 1676WNA     WN 3477   3.812   2.454   4.887 
 1677WNA     WN 3479   1.999   2.816   4.798 
 1678WNA     WN 3481   2.430   0.330   3.458 
 1679WNA     WN 3483   2.647   3.596   2.879 
 1680WNA     WN 3485   2.096   3.229   5.020 
 1681WNA     WN 3487   3.337   1.966   0.215 
 1682WNA     WN 3489   2.790   0.882   0.536 
 1683WNA     WN 3491   2.761   3.765   4.862 
 1684WNA     WN 3493   5.729   4.382   0.921 
 1685WNA     WN 3495   3.228   4.570   3.346 
 1686WNA     WN 3497   1.785   3.285   0.419 
 1687WNA     WN 3499   5.726   4.993   0.029 
 1688WNA     WN 3501   5.711   0.349   3.143 
 1689WNA     WN 3503   0.550   0.168   5.408 
 1690WNA     WN 3505   2.580   1.254   5.906 
 1691WNA     WN 3507   0.812   4.022   2.564 
 1692WNA     WN 3509   4.856   2.094   0.350 
 1693WNA     WN 3511   0.644   0.659   1.520 
 1694WNA     WN 3513   3.708   2.212   2.044 
 1695WNA     WN 3515   4.352   1.493   3.539 
 1696WNA     WN 3517   2.619   1.682   1.245 
 1697WNA     WN 3519   0.731   1.118   6.008 
 1698WNA     WN 3521   0.447   0.715   0.709 
 1699WNA     WN 3523   3.604   4.777   3.618 
 1700WNA     WN 3525   3.968   2.117   5.288 
 1701WNA     WN 3527   2.481   4.951   1.502 
 1702WNA     WN 3529   0.384   1.270   5.214 
 1703WNA     WN 3531   5.498   1.414   2.874 
 1704WNA     WN 3533   2.271   0.802   0.621 
 1705WNA     WN 3535   4.960   1.759   2.055 
 1706WNA     WN 3537   2.662   5.917   5.641 
 1707WNA     WN 3539   5.339   2.765   5.117 
 1708WNA     WN 3541   3.045   2.067   5.397 
 1709WNA     WN 3543   0.161   2.136   3.614 
 1710WNA     WN 3545   2.644   4.502   6.171 
 1711WNA     WN 3547   5.116   3.080   0.128 
 1712WNA     WN 3549   1.538   3.065   2.994 
 1713WNA     WN 3551   0.481   1.778   3.709 
 1714WNA     WN 3553   5.560   0.514   0.556 
 1715WNA     WN 3555   1.625   1.480   0.250 
 1716WNA     WN 3557   5.132   2.641   1.810 
 1717WNA     WN 3559   3.525   1.090   0.472 
 1718WNA     WN 3561   5.743   3.954   0.098 
 1719WNA     WN 3563   4.978   2.141   1.712 
 1720WNA     WN 3565   1.334   5.856   4.809 
 1721WNA     WN 3567   1.224   5.392   2.997 
 1722WNA     WN 3569   5.110   2.227   5.984 
 1723WNA     WN 3571   0.075   3.349   2.771 
 1724WNA     WN 3573   0.929   1.755   3.323 
 1725WNA     WN 3575   0.177   5.418   2.747 
 1726WNA     WN 3577   6.126   0.749   2.435 
 1727WNA     WN 3579   1.316   0.976   2.024 
 1728WNA     WN 3581   4.308   5.598   1.159 
 1729WNA     WN 3583   2.564   2.565   5.692 
 1730WNA     WN 3585   3.647   5.006   0.945 
 1731WNA     WN 3587   4.672   2.167   2.719 
 1732WNA     WN 3589   4.399   4.609   0.081 
 1733WNA     WN 3591   2.647   2.147   3.416 
 1734WNA     WN 3593   5.285   1.804   1.300 
 1735WNA     WN 3595   4.037   4.572   3.973 
 1736WNA     WN 3597   1.499   2.550   5.455 
 1737WNA     WN 3599   4.204   4.202   0.085 
 1738WNA     WN 3601   2.404   5.089   5.535 
 1739WNA     WN 3603   1.038   5.842   2.801 
 1740WNA     WN 3605   5.590   4.514   4.143 
 1741WNA     WN 3607   3.840   5.989   4.674 
 1742WNA     WN 3609   0.123   3.789   2.582 
 1743WNA     WN 3611   5.626   0.654   4.067 
 1744WNA     WN 3613   0.489   0.461   0.221 
 1745WNA     WN 3615   6.020   5.552   0.623 
 1746WNA     WN 3617   5.965   4.741   2.715 
 1747WNA     WN 3619   0.334   0.662   2.191 
 1748WNA     WN 3621   3.211   0.269   0.401 
 1749WNA     WN 3623   1.335   4.745   3.539 
 1750WNA     WN 3625   0.081   2.140   5.312 
 1751WNA     WN 3627   1.057   4.981   5.929 
 1752WNA     WN 3629   2.601   5.767   4.546 
 1753WNA     WN 3631   1.645   5.357   3.845 
 1754WNA     WN 3633   3.905   3.754   0.971 
 1755WNA     WN 3635   2.866   6.136   4.720 
 1756WNA     WN 3637   3.554   5.416   0.570 
 1757WNA     WN 3639   1.950   2.320   3.724 
 1758WNA     WN 3641   0.507   1.007   3.172 
 1759WNA     WN 3643   2.798   1.114   2.195 
 1760WNA     WN 3645   1.713   3.860   2.525 
 1761WNA     WN 3647   3.717   3.748   5.147 
 1762WNA     WN 3649   5.771   3.386   4.437 
 1763WNA     WN 3651   5.757   5.380   3.966 
 1764WNA     WN 3653   0.160   0.412   4.100 
 1765WNA     WN 3655   2.302   5.127   3.369 
 1766WNA     WN 3657   3.159   1.201   4.956 
 1767WNA     WN 3659   3.479   2.120   2.542 
 1768WNA     WN 3661   4.921   2.444   1.253 
 1769WNA     WN 3663   1.501   0.142   4.071 
 1770WNA     WN 3665   1.895   3.117   2.686 
 1771WNA     WN 3667   1.530   2.434   1.971 
 1772WNA     WN 3669   2.902   2.856   4.675 
 1773WNA     WN 3671   5.971   2.057   4.997 
 1774WNA     WN 3673   0.234   4.853   4.125 
 1775WNA     WN 3675   4.868   3.412   3.532 
 1776WNA     WN 3677   1.698   5.447   4.801 
 1777WNA     WN 3679   4.400   0.876   3.544 
 1778WNA     WN 3681   4.777   2.706   6.098 
 1779WNA     WN 3683   3.031   5.026   0.519 
 1780WNA     WN 3685   1.623   2.765   5.844 
 1781WNA     WN 3687   1.492   4.779   3.016 
 1782WNA     WN 3689   2.510   1.872   0.678 
 1783WNA     WN 3691   2.108   4.383   1.921 
 1784WNA     WN 3693   4.040   4.990   0.588 
 1785WNA     WN 3695   3.098   4.702   6.026 
 1786WNA     WN 3697   3.027   5.100   1.597 
 1787WNA     WN 3699   1.908   3.850   5.382 
 1788WNA     WN 3701   1.211   0.588   4.104 
 1789WNA     WN 3703   3.350   0.829   5.162 
 1790WNA     WN 3705   4.137   3.867   4.890 
 1791WNA     WN 3707   1.725   2.370   4.963 
 1792WNA     WN 3709   2.356   2.664   5.133 
 1793WNA     WN 3711   1.283   4.206   1.290 
 1794WNA     WN 3713   2.209   0.031   2.884 
 1795WNA     WN 3715   0.580   4.308   3.883 
 1796WNA     WN 3717   0.861   2.340   0.249 
 1797WNA     WN 3719   2.102   4.403   2.888 
 1798WNA     WN 3721   1.710   2.807   1.008 
 1799WNA     WN 3723   4.609   6.042   1.465 
 1800WNA     WN 3725   1.889   1.742   3.442 
 1801WNA     WN 3727   3.365   3.464   4.000 
 1802WNA     WN 3729   3.021   5.355   2.209 
 1803WNA     WN 3731   1.232   5.150   0.217 
 1804WNA     WN 3733   5.192   5.835   0.207 
 1805WNA     WN 3735   3.210   5.027   3.448 
 1806WNA     WN 3737   1.960   5.469   3.456 
 1807WNA     WN 3739   2.497   2.258   2.806 
 1808WNA     WN 3741   0.446   4.829   5.856 
 1809WNA     WN 3743   1.141   1.283   0.818 
 1810WNA     WN 3745   5.897   2.811   3.291 
 1811WNA     WN 3747   3.380   4.863   4.049 
 1812WNA     WN 3749   2.987   0.477   5.365 
 1813WNA     WN 3751   0.720   0.442   4.024 
 1814WNA     WN 3753   1.832   5.891   3.040 
 1815WNA     WN 3755   5.128   2.319   2.195 
 1816WNA     WN 3757   0.796   3.110   0.885 
 1817WNA     WN 3759   2.665   2.340   3.872 
 1818WNA     WN 3761   0.736   6.048   4.635 
 1819WNA     WN 3763   2.832   3.528   5.839 
 1820WNA     WN 3765   3.866   1.199   1.353 
 1821WNA     WN 3767   1.929   3.189   3.756 
 1822WNA     WN 3769   3.296   3.049   3.357 
 1823WNA     WN 3771   0.394   6.151   0.173 
 1824WNA     WN 3773   0.964   5.470   6.023 
 1825WNA     WN 3775   6.076   2.043   2.652 
 1826WNA     WN 3777   1.138   1.067   5.618 
 1827WNA     WN 3779   4.856   4.576   3.691 
 1828WNA     WN 3781   5.535   1.840   5.205 
 1829WNA     WN 3783   3.379   0.782   0.111 
 1830WNA     WN 3785   0.232   2.131   2.317 
 1831WNA     WN 3787   2.086   0.000   3.355 
 1832WNA     WN 3789   1.988   1.843   4.629 
 1833WNA     WN 3791   5.603   1.001   2.602 
 1834WNA     WN 3793   2.287   3.979   1.227 
 1835WNA     WN 3795   1.028   2.353   1.697 
 1836WNA     WN 3797   4.832   4.422   4.634 
 1837WNA     WN 3799   3.947   1.528   3.925 
 1838WNA     WN 3801   2.579   1.497   0.248 
 1839WNA     WN 3803   1.349   3.581   3.739 
 1840WNA     WN 3805   3.997   2.190   2.543 
 1841WNA     WN 3807   2.667   0.383   2.501 
 1842WNA     WN 3809   3.408   0.899   2.933 
 1843WNA     WN 3811   3.052   0.977   4.133 
 1844WNA     WN 3813   5.194   1.086   5.577 
 1845WNA     WN 3815   2.505   4.101   1.712 
 1846WNA     WN 3817   2.116   2.996   4.300 
 1847WNA     WN 3819   2.371   1.274   1.184 
 1848WNA     WN 3821   5.442   4.758   0.662 
 1849WNA     WN 3823   3.787   4.664   4.479 
 1850WNA     WN 3825   6.114   0.074   3.136 
 1851WNA     WN 3827   5.681   1.395   5.804 
 1852WNA     WN 3829   4.882   2.999   0.631 
 1853WNA     WN 3831   3.661   5.536   4.708 
 1854WNA     WN 3833   4.064   1.953   5.764 
 1855WNA     WN 3835   3.186   0.207   1.739 
 1856WNA     WN 3837   2.467   0.584   1.961 
 1857WNA     WN 3839   2.219   5.605   3.073 
 1858WNA     WN 3841   0.795   2.988   2.445 
 1859WNA     WN 3843   4.964   1.508   5.471 
 1860WNA     WN 3845   3.883   3.135   2.496 
 1861WNA     WN 3847   2.568   1.255   4.975 
 1862WNA     WN 3849   4.553   4.324   4.016 
 1863WNA     WN 3851   2.088   5.940   0.772 
 1864WNA     WN 3853   5.729   5.937   1.940 
 1865WNA     WN 3855   3.133   4.638   1.246 
 1866WNA     WN 3857   5.087   3.593   4.401 
 1867WNA     WN 3859   5.292   6.175   2.811 
 1868WNA     WN 3861   4.004   2.938   5.087 
 1869WNA     WN 3863   2.196   5.409   0.938 
 1870WNA     WN 3865   4.331   6.186   4.705 
 1871WNA     WN 3867   4.955   1.665   5.920 
 1872WNA     WN 3869   2.364   4.430   1.370 
 1873WNA     WN 3871   3.802   1.528   5.626 
 1874WNA     WN 3873   5.650   0.238   1.774 
 1875WNA     WN 3875   0.613   1.825   2.919 
 1876WNA     WN 3877   2.803   1.859   2.964 
 1877WNA     WN 3879   4.285   1.122   0.392 
 1878WNA     WN 3881   3.857   4.330   2.811 
 1879WNA     WN 3883   5.024   1.662   2.986 
 1880WNA     WN 3885   5.630   3.844   4.714 
 1881WNA     WN 3887   2.573   2.435   0.505 
 1882WNA     WN 3889   5.390   5.741   3.613 
 1883WNA     WN 3891   1.955   2.681   1.806 
 1884WNA     WN 3893   2.659   2.774   0.934 
 1885WNA     WN 3895   5.651   6.106   5.954 
 1886WNA     WN 3897   4.896   1.777   3.501 
 1887WNA     WN 3899   6.056   1.006   4.063 
 1888WNA     WN 3901   0.565   5.705   5.322 
 1889WNA     WN 3903   1.795   4.869   3.739 
 1890WNA     WN 3905   0.944   0.647   1.946 
 1891WNA     WN 3907   0.628   5.830   5.745 
 1892WNA     WN 3909   4.771   5.442   0.949 
 1893WNA     WN 3911   4.401   0.938   4.386 
 1894WNA     WN 3913   4.209   3.144   3.493 
 1895WNA     WN 3915   1.881   5.953   4.938 
 1896WNA     WN 3917   0.288   1.212   3.580 
 1897WNA     WN 3919   4.381   3.823   5.349 
 1898WNA     WN 3921   4.756   3.888   2.699 
 1899WNA     WN 3923   5.765   2.470   5.080 
 1900WNA     WN 3925   1.020   5.307   2.554 
 1901WNA     WN 3927   2.162   2.353   4.688 
 1902WNA     WN 3929   0.747   2.217   4.971 
 1903WNA     WN 3931   3.028   4.350   5.099 
 1904WNA     WN 3933   0.538   3.790   4.205 
 1905WNA     WN 3935   4.285   2.460   4.415 
 1906WNA     WN 3937   1.663   1.888   5.098 
 1907WNA     WN 3939   3.510   1.664   4.502 
 1908WNA     WN 3941   3.083   2.497   5.747 
 1909WNA     WN 3943   2.786   1.152   3.066 
 1910WNA     WN 3945   4.507   0.156   4.247 
 1911WNA     WN 3947   3.635   3.596   6.114 
 1912WNA     WN 3949   1.238   5.620   0.764 
 1913WNA     WN 3951   1.031   4.442   3.739 
 1914WNA     WN 3953   1.001   0.866   3.141 
 1915WNA     WN 3955   1.614   3.109   4.372 
 1916WNA     WN 3957   3.781   5.263   5.067 
 1917WNA     WN 3959   3.509   1.421   1.110 
 1918WNA     WN 3961   0.529   5.780   3.173 
 1919WNA     WN 3963   1.887   0.663   1.853 
 1920WNA     WN 3965   0.920   3.061   2.991 
 1921WNA     WN 3967   1.461   5.165   2.419 
 1922WNA     WN 3969   1.846   0.121   0.718 
 1923WNA     WN 3971   1.490   1.022   0.574 
 1924WNA     WN 3973   1.831   6.119   2.549 
 1925WNA     WN 3975   0.440   1.754   5.185 
 1926WNA     WN 3977   5.589   2.952   2.815 
 1927WNA     WN 3979   1.256   5.688   2.249 
 1928WNA     WN 3981   2.509   0.532   1.049 
 1929WNA     WN 3983   3.075   0.586   1.331 
 1930WNA     WN 3985   2.255   3.663   5.015 
 1931WNA     WN 3987   0.190   3.144   4.745 
 1932WNA     WN 3989   4.417   0.868   5.662 
 1933WNA     WN 3991   4.619   5.970   2.135 
 1934WNA     WN 3993   1.738   6.000   2.035 
 1935WNA     WN 3995   4.651   3.843   4.651 
 1936WNA     WN 3997   3.682   2.300   3.715 
 1937WNA     WN 3999   0.756   0.015   2.735 
 1938WNA     WN 4001   2.258   3.456   4.111 
 1939WNA     WN 4003   0.012   5.780   1.028 
 1940WNA     WN 4005   3.203   5.481   4.412 
 1941WNA     WN 4007   4.259   2.611   0.818 
 1942WNA     WN 4009   1.188   1.805   1.078 
 1943WNA     WN 4011   5.572   3.806   1.307 
 1944WNA     WN 4013   2.910   4.028   3.561 
 1945WNA     WN 4015   0.657   1.881   1.376 
 1946WNA     WN 4017   3.471   0.321   0.920 
 1947WNA     WN 4019   5.776   5.054   1.976 
 1948WNA     WN 4021   3.667   6.222   5.590 
 1949WNA     WN 4023   0.198   5.310   4.422 
 1950WNA     WN 4025   0.220   0.761   4.528 
 1951WNA     WN 4027   5.297   1.960   0.100 
 1952WNA     WN 4029   3.488   4.390   4.153 
 1953WNA     WN 4031   6.063   4.061   4.996 
 1954WNA     WN 4033   5.611   1.203   1.015 
 1955WNA     WN 4035   4.204   0.475   2.648 
 1956WNA     WN 4037   1.655   0.238   2.169 
 1957WNA     WN 4039   0.487   3.892   3.468 
 1958WNA     WN 4041   4.891   6.072   2.479 
 1959WNA     WN 4043   3.650   3.346   0.343 
 1960WNA     WN 4045   0.242   1.144   6.092 
 1961WNA     WN 4047   1.268   4.911   5.250 
 1962WNA     WN 4049   3.280   5.824   3.838 
 1963WNA     WN 4051   5.450   4.627   1.705 
 1964WNA     WN 4053   1.413   3.527   1.621 
 1965WNA     WN 4055   1.178   0.420   5.186 
 1966WNA     WN 4057   2.679   2.462   4.758 
 1967WNA     WN 4059   5.585   1.703   0.814 
 1968WNA     WN 4061   4.739   0.627   2.599 
 1969WNA     WN 4063   5.333   3.431   0.493 
 1970WNA     WN 4065   3.315   3.343   1.191 
 1971WNA     WN 4067   5.200   5.665   0.796 
 1972WNA     WN 4069   2.736   5.970   1.532 
 1973WNA     WN 4071   0.964   5.321   5.509 
 1974WNA     WN 4073   6.180   0.724   6.013 
 1975WNA     WN 4075   2.818   2.823   0.445 
 1976WNA     WN 4077   3.239   5.520   4.988 
 1977WNA     WN 4079   3.227   3.391   6.061 
 1978WNA     WN 4081   2.944   3.744   0.075 
 1979WNA     WN 4083   4.110   4.065   2.456 
 1980WNA     WN 4085   0.927   5.168   4.317 
 1981WNA     WN 4087   5.639   1.926   4.281 
 1982WNA     WN 4089   5.343   1.402   2.426 
 1983WNA     WN 4091   2.226   0.402   5.116 
 1984WNA     WN 4093   3.134   2.096   3.280 
 1985WNA     WN 4095   0.325   6.109   5.032 
 1986WNA     WN 4097   3.605   3.935   2.569 
 1987WNA     WN 4099   3.403   5.941   0.298 
 1988WNA     WN 4101   6.162   0.196   5.314 
 1989WNA     WN 4103   4.671   0.225   1.113 
 1990WNA     WN 4105   5.309   6.031   1.462 
 1991WNA     WN 4107   1.413   5.756   0.151 
 1992WNA     WN 4109   3.928   5.408   0.908 
 1993WNA     WN 4111   3.840   1.792   3.520 
 1994WNA     WN 4113   1.476   4.507   2.005 
 1995WNA     WN 4115   4.235   4.577   3.500 
 1996WNA     WN 4117   3.400   5.259   1.884 
 1997WNA     WN 4119   4.548   4.460   5.483 
 1998WNA     WN 4121   1.351   5.444   4.244 
 1999WNA     WN 4123   0.075   5.595   1.534 
 2000WNA     WN 4125   0.119   1.602   2.203 
 2001WNA     WN 4127   3.545   1.951   4.052 
 2002WNA     WN 4129   2.168   5.166   1.855 
 2003WNA     WN 4131   1.441   5.623   5.704 
 2004WNA     WN 4133   6.121   2.805   4.745 
 2005WNA     WN 4135   4.023   2.931   3.892 
 2006WNA     WN 4137   1.595   4.821   6.182 
 2007WNA     WN 4139   0.423   0.048   3.214 
 2008WNA     WN 4141   0.082   3.203   1.309 
 2009WNA     WN 4143   5.750   2.534   4.376 
 2010WNA     WN 4145   1.731   2.263   4.528 
 2011WNA     WN 4147   3.300   3.100   2.100 
 2012WNA     WN 4149   4.588   3.783   6.045 
 2013WNA     WN 4151   5.756   0.082   0.728 
 2014WNA     WN 4153   2.281   4.987   2.413 
 2015WNA     WN 4155   0.553   1.719   2.358 
 2016WNA     WN 4157   4.243   0.281   1.413 
 2017WNA     WN 4159   4.823   1.927   1.276 
 2018WNA     WN 4161   1.780   2.775   3.399 
 2019WNA     WN 4163   2.642   4.693   5.251 
 2020WNA     WN 4165   0.174   5.536   3.527 
 2021WNA     WN 4167   1.424   2.203   1.500 
 2022WNA     WN 4169   1.682   1.532   1.680 
 2023WNA     WN 4171   5.204   5.262   2.947 
 2024WNA     WN 4173   6.120   0.064   5.877 
 2025WNA     WN 4175   1.499   0.239   1.081 
 2026WNA     WN 4177   3.279   2.547   4.726 
 2027WNA     WN 4179   2.389   5.011   4.975 
 2028WNA     WN 4181   4.888   0.778   5.918 
 2029WNA     WN 4183   1.465   2.797   4.753 
 2030WNA     WN 4185   4.454   1.579   2.063 
 2031WNA     WN 4187   1.025   3.152   4.697 
 2032WNA     WN 4189   4.143   1.159   3.190 
 2033WNA     WN 4191   2.851   1.538   0.842 
 2034WNA     WN 4193   5.953   6.133   1.523 
 2035WNA     WN 4195   0.620   3.038   6.151 
 2036WNA     WN 4197   5.594   2.768   3.676 
 2037WNA     WN 4199   5.869   6.015   4.552 
 2038WNA     WN 4201   1.579   2.173   3.429 
 2039WNA     WN 4203   3.738   5.799   3.387 
 2040WNA     WN 4205   2.585   4.977   4.185 
 2041WNA     WN 4207   6.125   4.853   2.230 
 2042WNA     WN 4209   0.398   4.137   2.886 
 2043WNA     WN 4211   4.908   1.049   2.948 
 2044WNA     WN 4213   0.271   3.034   5.769 
 2045WNA     WN 4215   3.729   3.765   3.608 
 2046WNA     WN 4217   1.314   1.906   4.391 
 2047WNA     WN 4219   1.822   5.689   6.048 
 2048WNA     WN 4221   3.838   2.735   3.505 
 2049WNA     WN 4223   0.020   1.584   5.073 
 2050WNA     WN 4225   4.543   0.717   0.601 
 2051WNA     WN 4227   4.441   1.125   1.342 
 2052WNA     WN 4229   2.102   4.778   4.116 
 2053WNA     WN 4231   5.598   5.913   0.517 
 2054WNA     WN 4233   1.303   0.491   3.234 
 2055WNA     WN 4235   5.965   2.269   5.646 
 2056WNA     WN 4237   1.395   4.800   1.564 
 2057WNA     WN 4239   4.504   2.976   4.806 
 2058WNA     WN 4241   2.838   3.462   1.938 
 2059WNA     WN 4243   0.494   0.628   5.982 
 2060WNA     WN 4245   2.027   0.363   1.050 
 2061WNA     WN 4247   5.223   5.627   4.699 
 2062WNA     WN 4249   5.618   2.817   5.527 
   6.224     6.224     6.224  
