MARTINI W box for solvate -cs
  216
    1W        W    1   0.000   0.000   0.000
    2W        W    2   0.000   0.000   0.470
    3W        W    3   0.000   0.000   0.940
    4W        W    4   0.000   0.000   1.410
    5W        W    5   0.000   0.000   1.880
    6W        W    6   0.000   0.000   2.350
    7W        W    7   0.000   0.470   0.000
    8W        W    8   0.000   0.470   0.470
    9W        W    9   0.000   0.470   0.940
   10W        W   10   0.000   0.470   1.410
   11W        W   11   0.000   0.470   1.880
   12W        W   12   0.000   0.470   2.350
   13W        W   13   0.000   0.940   0.000
   14W        W   14   0.000   0.940   0.470
   15W        W   15   0.000   0.940   0.940
   16W        W   16   0.000   0.940   1.410
   17W        W   17   0.000   0.940   1.880
   18W        W   18   0.000   0.940   2.350
   19W        W   19   0.000   1.410   0.000
   20W        W   20   0.000   1.410   0.470
   21W        W   21   0.000   1.410   0.940
   22W        W   22   0.000   1.410   1.410
   23W        W   23   0.000   1.410   1.880
   24W        W   24   0.000   1.410   2.350
   25W        W   25   0.000   1.880   0.000
   26W        W   26   0.000   1.880   0.470
   27W        W   27   0.000   1.880   0.940
   28W        W   28   0.000   1.880   1.410
   29W        W   29   0.000   1.880   1.880
   30W        W   30   0.000   1.880   2.350
   31W        W   31   0.000   2.350   0.000
   32W        W   32   0.000   2.350   0.470
   33W        W   33   0.000   2.350   0.940
   34W        W   34   0.000   2.350   1.410
   35W        W   35   0.000   2.350   1.880
   36W        W   36   0.000   2.350   2.350
   37W        W   37   0.470   0.000   0.000
   38W        W   38   0.470   0.000   0.470
   39W        W   39   0.470   0.000   0.940
   40W        W   40   0.470   0.000   1.410
   41W        W   41   0.470   0.000   1.880
   42W        W   42   0.470   0.000   2.350
   43W        W   43   0.470   0.470   0.000
   44W        W   44   0.470   0.470   0.470
   45W        W   45   0.470   0.470   0.940
   46W        W   46   0.470   0.470   1.410
   47W        W   47   0.470   0.470   1.880
   48W        W   48   0.470   0.470   2.350
   49W        W   49   0.470   0.940   0.000
   50W        W   50   0.470   0.940   0.470
   51W        W   51   0.470   0.940   0.940
   52W        W   52   0.470   0.940   1.410
   53W        W   53   0.470   0.940   1.880
   54W        W   54   0.470   0.940   2.350
   55W        W   55   0.470   1.410   0.000
   56W        W   56   0.470   1.410   0.470
   57W        W   57   0.470   1.410   0.940
   58W        W   58   0.470   1.410   1.410
   59W        W   59   0.470   1.410   1.880
   60W        W   60   0.470   1.410   2.350
   61W        W   61   0.470   1.880   0.000
   62W        W   62   0.470   1.880   0.470
   63W        W   63   0.470   1.880   0.940
   64W        W   64   0.470   1.880   1.410
   65W        W   65   0.470   1.880   1.880
   66W        W   66   0.470   1.880   2.350
   67W        W   67   0.470   2.350   0.000
   68W        W   68   0.470   2.350   0.470
   69W        W   69   0.470   2.350   0.940
   70W        W   70   0.470   2.350   1.410
   71W        W   71   0.470   2.350   1.880
   72W        W   72   0.470   2.350   2.350
   73W        W   73   0.940   0.000   0.000
   74W        W   74   0.940   0.000   0.470
   75W        W   75   0.940   0.000   0.940
   76W        W   76   0.940   0.000   1.410
   77W        W   77   0.940   0.000   1.880
   78W        W   78   0.940   0.000   2.350
   79W        W   79   0.940   0.470   0.000
   80W        W   80   0.940   0.470   0.470
   81W        W   81   0.940   0.470   0.940
   82W        W   82   0.940   0.470   1.410
   83W        W   83   0.940   0.470   1.880
   84W        W   84   0.940   0.470   2.350
   85W        W   85   0.940   0.940   0.000
   86W        W   86   0.940   0.940   0.470
   87W        W   87   0.940   0.940   0.940
   88W        W   88   0.940   0.940   1.410
   89W        W   89   0.940   0.940   1.880
   90W        W   90   0.940   0.940   2.350
   91W        W   91   0.940   1.410   0.000
   92W        W   92   0.940   1.410   0.470
   93W        W   93   0.940   1.410   0.940
   94W        W   94   0.940   1.410   1.410
   95W        W   95   0.940   1.410   1.880
   96W        W   96   0.940   1.410   2.350
   97W        W   97   0.940   1.880   0.000
   98W        W   98   0.940   1.880   0.470
   99W        W   99   0.940   1.880   0.940
  100W        W  100   0.940   1.880   1.410
  101W        W  101   0.940   1.880   1.880
  102W        W  102   0.940   1.880   2.350
  103W        W  103   0.940   2.350   0.000
  104W        W  104   0.940   2.350   0.470
  105W        W  105   0.940   2.350   0.940
  106W        W  106   0.940   2.350   1.410
  107W        W  107   0.940   2.350   1.880
  108W        W  108   0.940   2.350   2.350
  109W        W  109   1.410   0.000   0.000
  110W        W  110   1.410   0.000   0.470
  111W        W  111   1.410   0.000   0.940
  112W        W  112   1.410   0.000   1.410
  113W        W  113   1.410   0.000   1.880
  114W        W  114   1.410   0.000   2.350
  115W        W  115   1.410   0.470   0.000
  116W        W  116   1.410   0.470   0.470
  117W        W  117   1.410   0.470   0.940
  118W        W  118   1.410   0.470   1.410
  119W        W  119   1.410   0.470   1.880
  120W        W  120   1.410   0.470   2.350
  121W        W  121   1.410   0.940   0.000
  122W        W  122   1.410   0.940   0.470
  123W        W  123   1.410   0.940   0.940
  124W        W  124   1.410   0.940   1.410
  125W        W  125   1.410   0.940   1.880
  126W        W  126   1.410   0.940   2.350
  127W        W  127   1.410   1.410   0.000
  128W        W  128   1.410   1.410   0.470
  129W        W  129   1.410   1.410   0.940
  130W        W  130   1.410   1.410   1.410
  131W        W  131   1.410   1.410   1.880
  132W        W  132   1.410   1.410   2.350
  133W        W  133   1.410   1.880   0.000
  134W        W  134   1.410   1.880   0.470
  135W        W  135   1.410   1.880   0.940
  136W        W  136   1.410   1.880   1.410
  137W        W  137   1.410   1.880   1.880
  138W        W  138   1.410   1.880   2.350
  139W        W  139   1.410   2.350   0.000
  140W        W  140   1.410   2.350   0.470
  141W        W  141   1.410   2.350   0.940
  142W        W  142   1.410   2.350   1.410
  143W        W  143   1.410   2.350   1.880
  144W        W  144   1.410   2.350   2.350
  145W        W  145   1.880   0.000   0.000
  146W        W  146   1.880   0.000   0.470
  147W        W  147   1.880   0.000   0.940
  148W        W  148   1.880   0.000   1.410
  149W        W  149   1.880   0.000   1.880
  150W        W  150   1.880   0.000   2.350
  151W        W  151   1.880   0.470   0.000
  152W        W  152   1.880   0.470   0.470
  153W        W  153   1.880   0.470   0.940
  154W        W  154   1.880   0.470   1.410
  155W        W  155   1.880   0.470   1.880
  156W        W  156   1.880   0.470   2.350
  157W        W  157   1.880   0.940   0.000
  158W        W  158   1.880   0.940   0.470
  159W        W  159   1.880   0.940   0.940
  160W        W  160   1.880   0.940   1.410
  161W        W  161   1.880   0.940   1.880
  162W        W  162   1.880   0.940   2.350
  163W        W  163   1.880   1.410   0.000
  164W        W  164   1.880   1.410   0.470
  165W        W  165   1.880   1.410   0.940
  166W        W  166   1.880   1.410   1.410
  167W        W  167   1.880   1.410   1.880
  168W        W  168   1.880   1.410   2.350
  169W        W  169   1.880   1.880   0.000
  170W        W  170   1.880   1.880   0.470
  171W        W  171   1.880   1.880   0.940
  172W        W  172   1.880   1.880   1.410
  173W        W  173   1.880   1.880   1.880
  174W        W  174   1.880   1.880   2.350
  175W        W  175   1.880   2.350   0.000
  176W        W  176   1.880   2.350   0.470
  177W        W  177   1.880   2.350   0.940
  178W        W  178   1.880   2.350   1.410
  179W        W  179   1.880   2.350   1.880
  180W        W  180   1.880   2.350   2.350
  181W        W  181   2.350   0.000   0.000
  182W        W  182   2.350   0.000   0.470
  183W        W  183   2.350   0.000   0.940
  184W        W  184   2.350   0.000   1.410
  185W        W  185   2.350   0.000   1.880
  186W        W  186   2.350   0.000   2.350
  187W        W  187   2.350   0.470   0.000
  188W        W  188   2.350   0.470   0.470
  189W        W  189   2.350   0.470   0.940
  190W        W  190   2.350   0.470   1.410
  191W        W  191   2.350   0.470   1.880
  192W        W  192   2.350   0.470   2.350
  193W        W  193   2.350   0.940   0.000
  194W        W  194   2.350   0.940   0.470
  195W        W  195   2.350   0.940   0.940
  196W        W  196   2.350   0.940   1.410
  197W        W  197   2.350   0.940   1.880
  198W        W  198   2.350   0.940   2.350
  199W        W  199   2.350   1.410   0.000
  200W        W  200   2.350   1.410   0.470
  201W        W  201   2.350   1.410   0.940
  202W        W  202   2.350   1.410   1.410
  203W        W  203   2.350   1.410   1.880
  204W        W  204   2.350   1.410   2.350
  205W        W  205   2.350   1.880   0.000
  206W        W  206   2.350   1.880   0.470
  207W        W  207   2.350   1.880   0.940
  208W        W  208   2.350   1.880   1.410
  209W        W  209   2.350   1.880   1.880
  210W        W  210   2.350   1.880   2.350
  211W        W  211   2.350   2.350   0.000
  212W        W  212   2.350   2.350   0.470
  213W        W  213   2.350   2.350   0.940
  214W        W  214   2.350   2.350   1.410
  215W        W  215   2.350   2.350   1.880
  216W        W  216   2.350   2.350   2.350
   2.82000   2.82000   2.82000
