titratable MARTINI 
        6068
    1ANIL    P2    1   4.874   4.972   5.353
    1ANIL    DN    2   4.949   4.863   5.246
    1ANIL    DP    3   4.799   5.081   5.460
    1ANIL    R2    4   4.795   4.688   5.367
    1ANIL    R3    5   4.917   4.785   5.129
    2WNA     WN    6   1.228   1.601   0.441
    2WNA     DN    7   1.156   1.637   0.291
    3WNA     WN    8   5.679   1.109   6.228
    3WNA     DN    9   5.749   1.239   6.312
    4WNA     WN   10   2.518   2.234   5.303
    4WNA     DN   11   2.562   2.251   5.466
    5WNA     WN   12   1.311   2.703   4.574
    5WNA     DN   13   1.293   2.743   4.738
    6WNA     WN   14   4.411   2.895   5.201
    6WNA     DN   15   4.361   2.783   5.319
    7WNA     WN   16   4.269   1.128   5.956
    7WNA     DN   17   4.321   1.284   5.912
    8WNA     WN   18   4.586   0.757   1.596
    8WNA     DN   19   4.722   0.687   1.522
    9WNA     WN   20   5.136   2.117   4.229
    9WNA     DN   21   5.084   2.197   4.370
   10WNA     WN   22   5.518   0.536   0.807
   10WNA     DN   23   5.644   0.483   0.907
   11WNA     WN   24   0.052   0.000   2.006
   11WNA     DN   25  -0.004   0.110   2.123
   12WNA     WN   26   1.689   2.550   0.541
   12WNA     DN   27   1.810   2.665   0.510
   13WNA     WN   28   3.407   0.803   0.025
   13WNA     DN   29   3.437   0.907   0.156
   14WNA     WN   30   0.972   4.127   5.528
   14WNA     DN   31   0.837   4.227   5.557
   15WNA     WN   32   5.943   1.472   0.921
   15WNA     DN   33   5.904   1.313   0.876
   16WNA     WN   34   2.627   3.972   6.013
   16WNA     DN   35   2.631   3.815   5.948
   17WNA     WN   36   5.693   2.128   2.049
   17WNA     DN   37   5.836   2.124   1.958
   18WNA     WN   38   1.016   5.905   1.456
   18WNA     DN   39   0.910   6.037   1.440
   19WNA     WN   40   4.471   4.481   3.919
   19WNA     DN   41   4.549   4.332   3.892
   20WNA     WN   42   4.049   5.048   2.903
   20WNA     DN   43   4.174   5.113   2.808
   21WNA     WN   44   4.637   5.629   2.423
   21WNA     DN   45   4.560   5.532   2.307
   22WNA     WN   46   4.888   0.265   4.679
   22WNA     DN   47   4.783   0.147   4.616
   23WNA     WN   48   2.519   1.546   1.238
   23WNA     DN   49   2.476   1.519   1.400
   24WNA     WN   50   5.807   1.592   4.532
   24WNA     DN   51   5.755   1.672   4.673
   25WNA     WN   52   3.814   2.510   1.082
   25WNA     DN   53   3.678   2.507   0.980
   26WNA     WN   54   2.569   5.649   4.083
   26WNA     DN   55   2.521   5.710   4.234
   27WNA     WN   56   4.996   3.678   3.143
   27WNA     DN   57   5.130   3.744   3.225
   28WNA     WN   58   0.506   1.756   4.258
   28WNA     DN   59   0.418   1.901   4.246
   29WNA     WN   60   5.512   3.010   3.944
   29WNA     DN   61   5.474   3.124   4.064
   30WNA     WN   62   3.829   2.850   5.155
   30WNA     DN   63   3.830   2.970   5.276
   31WNA     WN   64   4.534   5.719   3.400
   31WNA     DN   65   4.695   5.721   3.344
   32WNA     WN   66   0.853   2.084   3.021
   32WNA     DN   67   0.958   2.034   3.145
   33WNA     WN   68   2.469   5.577   5.976
   33WNA     DN   69   2.494   5.454   6.091
   34WNA     WN   70   2.217   5.663   1.253
   34WNA     DN   71   2.289   5.512   1.223
   35WNA     WN   72   1.428   4.511   2.700
   35WNA     DN   73   1.485   4.367   2.630
   36WNA     WN   74   1.985   3.462   3.734
   36WNA     DN   75   1.942   3.531   3.584
   37WNA     WN   76   4.656   0.145   1.042
   37WNA     DN   77   4.608   0.256   0.922
   38WNA     WN   78   5.852   0.740   3.743
   38WNA     DN   79   5.805   0.902   3.723
   39WNA     WN   80   5.391   3.445   3.058
   39WNA     DN   81   5.447   3.304   2.982
   40WNA     WN   82   5.806   1.683   2.043
   40WNA     DN   83   5.678   1.659   2.152
   41WNA     WN   84   3.059   2.982   5.008
   41WNA     DN   85   3.208   2.966   4.927
   42WNA     WN   86   5.085   2.396   5.230
   42WNA     DN   87   4.980   2.271   5.277
   43WNA     WN   88   2.831   3.623   0.932
   43WNA     DN   89   2.922   3.766   0.929
   44WNA     WN   90   3.419   5.154   3.973
   44WNA     DN   91   3.445   5.219   4.128
   45WNA     WN   92   1.184   5.015   4.537
   45WNA     DN   93   1.188   5.024   4.707
   46WNA     WN   94   6.208   4.163   6.050
   46WNA     DN   95   6.203   4.118   5.886
   47WNA     WN   96   0.257   3.387   0.434
   47WNA     DN   97   0.211   3.542   0.488
   48WNA     WN   98   4.678   1.666   2.840
   48WNA     DN   99   4.807   1.741   2.758
   49WNA     WN  100   4.261   5.818   1.046
   49WNA     DN  101   4.225   5.864   1.205
   50WNA     WN  102   3.136   0.278   5.625
   50WNA     DN  103   3.142   0.431   5.699
   51WNA     WN  104   1.431   6.032   5.595
   51WNA     DN  105   1.546   5.910   5.624
   52WNA     WN  106   5.326   0.307   3.067
   52WNA     DN  107   5.240   0.332   2.922
   53WNA     WN  108   6.039   5.212   1.998
   53WNA     DN  109   5.976   5.156   1.850
   54WNA     WN  110   5.573   3.606   0.710
   54WNA     DN  111   5.689   3.506   0.784
   55WNA     WN  112   4.425   5.480   1.480
   55WNA     DN  113   4.581   5.438   1.426
   56WNA     WN  114   3.141   5.331   4.764
   56WNA     DN  115   3.127   5.489   4.703
   57WNA     WN  116   0.716   3.627   0.373
   57WNA     DN  117   0.557   3.679   0.345
   58WNA     WN  118   6.203   0.748   1.446
   58WNA     DN  119   6.227   0.850   1.580
   59WNA     WN  120   3.485   5.937   3.489
   59WNA     DN  121   3.567   5.788   3.481
   60WNA     WN  122   2.524   3.537   5.260
   60WNA     DN  123   2.573   3.578   5.102
   61WNA     WN  124   4.395   5.082   4.494
   61WNA     DN  125   4.383   4.913   4.510
   62WNA     WN  126   6.158   2.503   5.959
   62WNA     DN  127   6.162   2.346   5.894
   63WNA     WN  128   5.632   0.847   0.429
   63WNA     DN  129   5.798   0.865   0.462
   64WNA     WN  130   5.468   6.215   0.999
   64WNA     DN  131   5.412   6.321   1.119
   65WNA     WN  132   2.607   3.061   1.504
   65WNA     DN  133   2.624   2.973   1.649
   66WNA     WN  134   3.542   4.208   4.169
   66WNA     DN  135   3.572   4.044   4.202
   67WNA     WN  136   4.403   3.933   1.982
   67WNA     DN  137   4.473   3.986   2.128
   68WNA     WN  138   6.009   1.405   6.065
   68WNA     DN  139   6.164   1.376   6.003
   69WNA     WN  140   0.364   2.018   3.163
   69WNA     DN  141   0.431   1.918   3.043
   70WNA     WN  142   5.089   5.416   3.233
   70WNA     DN  143   5.158   5.568   3.263
   71WNA     WN  144   2.172   2.216   2.797
   71WNA     DN  145   2.075   2.324   2.885
   72WNA     WN  146   3.211   1.349   1.711
   72WNA     DN  147   3.318   1.285   1.596
   73WNA     WN  148   4.351   5.640   4.056
   73WNA     DN  149   4.241   5.766   4.086
   74WNA     WN  150   3.015   3.488   1.468
   74WNA     DN  151   2.993   3.324   1.506
   75WNA     WN  152   0.621   3.969   4.310
   75WNA     DN  153   0.470   3.893   4.329
   76WNA     WN  154   3.937   4.583   1.936
   76WNA     DN  155   4.049   4.455   1.938
   77WNA     WN  156   4.011   5.668   1.442
   77WNA     DN  157   4.064   5.636   1.284
   78WNA     WN  158   2.183   5.951   4.047
   78WNA     DN  159   2.041   5.977   3.957
   79WNA     WN  160   4.768   5.493   5.384
   79WNA     DN  161   4.771   5.658   5.343
   80WNA     WN  162   2.586   1.964   0.978
   80WNA     DN  163   2.665   2.114   0.965
   81WNA     WN  164   0.977   4.840   3.637
   81WNA     DN  165   1.066   4.697   3.612
   82WNA     WN  166   0.849   3.617   3.440
   82WNA     DN  167   0.730   3.580   3.325
   83WNA     WN  168   2.344   0.204   2.853
   83WNA     DN  169   2.381   0.196   3.019
   84WNA     WN  170   1.227   2.221   5.825
   84WNA     DN  171   1.333   2.321   5.737
   85WNA     WN  172   6.078   0.797   1.015
   85WNA     DN  173   6.145   0.778   0.860
   86WNA     WN  174   0.623   2.754   2.035
   86WNA     DN  175   0.485   2.661   2.070
   87WNA     WN  176   4.026   2.184   3.623
   87WNA     DN  177   4.140   2.090   3.707
   88WNA     WN  178   4.784   1.629   4.385
   88WNA     DN  179   4.947   1.583   4.366
   89WNA     WN  180   0.809   3.940   3.891
   89WNA     DN  181   0.852   4.047   3.766
   90WNA     WN  182   4.514   4.247   4.387
   90WNA     DN  183   4.459   4.094   4.336
   91WNA     WN  184   2.084   3.415   5.095
   91WNA     DN  185   1.991   3.528   5.009
   92WNA     WN  186   1.204   0.160   1.420
   92WNA     DN  187   1.142   0.054   1.537
   93WNA     WN  188   1.190   5.306   2.751
   93WNA     DN  189   1.205   5.433   2.863
   94WNA     WN  190   1.355   0.380   3.026
   94WNA     DN  191   1.309   0.221   2.986
   95WNA     WN  192   4.324   1.946   2.824
   95WNA     DN  193   4.266   1.952   2.984
   96WNA     WN  194   2.250   5.094   1.258
   96WNA     DN  195   2.123   5.140   1.361
   97WNA     WN  196   5.534   2.608   0.512
   97WNA     DN  197   5.667   2.520   0.571
   98WNA     WN  198   1.839   5.590   3.384
   98WNA     DN  199   1.967   5.553   3.489
   99WNA     WN  200   0.021   4.297   0.416
   99WNA     DN  201  -0.013   4.444   0.495
  100WNA     WN  202   4.957   1.580   1.443
  100WNA     DN  203   5.030   1.571   1.596
  101WNA     WN  204   1.035   5.095   1.890
  101WNA     DN  205   0.989   4.933   1.915
  102WNA     WN  206   5.071   6.189   4.975
  102WNA     DN  207   5.200   6.085   4.939
  103WNA     WN  208   1.842   4.355   1.420
  103WNA     DN  209   2.009   4.367   1.391
  104WNA     WN  210   0.012   1.104   3.777
  104WNA     DN  211   0.026   0.952   3.852
  105WNA     WN  212   0.085   5.902   5.504
  105WNA     DN  213   0.102   6.030   5.394
  106WNA     WN  214   4.345   5.261   2.155
  106WNA     DN  215   4.455   5.152   2.085
  107WNA     WN  216   4.618   4.040   5.049
  107WNA     DN  217   4.654   3.982   5.205
  108WNA     WN  218   1.565   5.993   3.044
  108WNA     DN  219   1.469   5.855   3.067
  109WNA     WN  220   3.784   3.245   3.691
  109WNA     DN  221   3.819   3.349   3.561
  110WNA     WN  222   2.886   3.163   5.464
  110WNA     DN  223   3.023   3.186   5.366
  111WNA     WN  224   1.443   0.313   0.330
  111WNA     DN  225   1.385   0.440   0.232
  112WNA     WN  226   5.165   0.695   0.367
  112WNA     DN  227   5.141   0.824   0.475
  113WNA     WN  228   4.450   4.948   0.762
  113WNA     DN  229   4.433   4.783   0.727
  114WNA     WN  230   0.727   3.896   5.182
  114WNA     DN  231   0.630   4.019   5.248
  115WNA     WN  232   3.157   4.166   0.958
  115WNA     DN  233   3.224   4.322   0.956
  116WNA     WN  234   0.223   1.977   0.275
  116WNA     DN  235   0.218   1.841   0.173
  117WNA     WN  236   4.730   1.193   3.111
  117WNA     DN  237   4.650   1.229   2.966
  118WNA     WN  238   5.969   5.914   0.889
  118WNA     DN  239   6.052   5.807   0.786
  119WNA     WN  240   2.188   2.475   0.321
  119WNA     DN  241   2.135   2.618   0.246
  120WNA     WN  242   0.041   3.525   3.751
  120WNA     DN  243   0.187   3.445   3.784
  121WNA     WN  244   0.453   1.218   2.481
  121WNA     DN  245   0.306   1.285   2.534
  122WNA     WN  246   3.782   1.658   1.671
  122WNA     DN  247   3.897   1.711   1.784
  123WNA     WN  248   2.007   4.153   0.042
  123WNA     DN  249   2.048   3.991   0.012
  124WNA     WN  250   4.603   1.141   1.957
  124WNA     DN  251   4.644   1.149   1.792
  125WNA     WN  252   4.387   4.800   5.294
  125WNA     DN  253   4.458   4.938   5.226
  126WNA     WN  254   5.452   3.832   3.485
  126WNA     DN  255   5.448   3.751   3.634
  127WNA     WN  256   2.799   4.875   3.337
  127WNA     DN  257   2.943   4.817   3.406
  128WNA     WN  258   4.246   2.251   4.101
  128WNA     DN  259   4.380   2.317   4.183
  129WNA     WN  260   2.325   4.825   5.885
  129WNA     DN  261   2.415   4.890   5.756
  130WNA     WN  262   2.832   0.805   0.803
  130WNA     DN  263   2.922   0.909   0.903
  131WNA     WN  264   4.135   2.331   0.766
  131WNA     DN  265   4.161   2.305   0.932
  132WNA     WN  266   5.359   4.838   2.955
  132WNA     DN  267   5.521   4.810   2.998
  133WNA     WN  268   5.498   1.660   0.717
  133WNA     DN  269   5.570   1.710   0.863
  134WNA     WN  270   2.170   5.677   0.712
  134WNA     DN  271   2.121   5.543   0.619
  135WNA     WN  272   2.061   0.173   2.410
  135WNA     DN  273   2.149   0.218   2.271
  136WNA     WN  274   2.023   1.562   2.651
  136WNA     DN  275   2.062   1.685   2.762
  137WNA     WN  276   3.385   3.501   0.030
  137WNA     DN  277   3.280   3.406  -0.065
  138WNA     WN  278   3.648   2.505   2.316
  138WNA     DN  279   3.536   2.497   2.443
  139WNA     WN  280   1.695   3.389   5.636
  139WNA     DN  281   1.611   3.534   5.608
  140WNA     WN  282   3.699   0.210   0.975
  140WNA     DN  283   3.791   0.175   0.836
  141WNA     WN  284   3.738   5.861   3.023
  141WNA     DN  285   3.896   5.824   2.973
  142WNA     WN  286   3.997   2.978   4.569
  142WNA     DN  287   3.960   3.037   4.414
  143WNA     WN  288   5.933   4.989   4.753
  143WNA     DN  289   5.881   5.149   4.730
  144WNA     WN  290   1.809   0.300   2.841
  144WNA     DN  291   1.659   0.307   2.761
  145WNA     WN  292   0.304   0.714   4.663
  145WNA     DN  293   0.458   0.770   4.709
  146WNA     WN  294   1.756   1.924   1.975
  146WNA     DN  295   1.661   1.852   1.853
  147WNA     WN  296   0.279   0.675   3.807
  147WNA     DN  297   0.262   0.568   3.676
  148WNA     WN  298   0.968   5.866   2.273
  148WNA     DN  299   0.885   5.740   2.350
  149WNA     WN  300   2.568   4.786   5.384
  149WNA     DN  301   2.557   4.617   5.365
  150WNA     WN  302   1.860   1.674   0.463
  150WNA     DN  303   1.752   1.793   0.408
  151WNA     WN  304   2.154   0.902   4.801
  151WNA     DN  305   2.282   0.809   4.864
  152WNA     WN  306   1.792   2.019   4.435
  152WNA     DN  307   1.646   2.103   4.461
  153WNA     WN  308   2.575   1.137   0.522
  153WNA     DN  309   2.643   0.984   0.552
  154WNA     WN  310   3.833   2.330   5.143
  154WNA     DN  311   3.843   2.466   5.042
  155WNA     WN  312   6.025   3.713   5.863
  155WNA     DN  313   6.161   3.613   5.883
  156WNA     WN  314   0.539   5.559   1.393
  156WNA     DN  315   0.421   5.669   1.339
  157WNA     WN  316   3.665   2.375   4.072
  157WNA     DN  317   3.525   2.278   4.076
  158WNA     WN  318   4.531   5.725   4.964
  158WNA     DN  319   4.453   5.707   4.814
  159WNA     WN  320   5.784   3.315   4.501
  159WNA     DN  321   5.900   3.413   4.577
  160WNA     WN  322   0.972   3.446   2.098
  160WNA     DN  323   1.051   3.452   2.249
  161WNA     WN  324   5.537   1.278   5.815
  161WNA     DN  325   5.592   1.439   5.809
  162WNA     WN  326   5.354   5.616   5.267
  162WNA     DN  327   5.329   5.457   5.323
  163WNA     WN  328   0.335   3.141   3.466
  163WNA     DN  329   0.454   3.121   3.346
  164WNA     WN  330   3.460   4.040   0.041
  164WNA     DN  331   3.342   4.160   0.061
  165WNA     WN  332   0.931   2.933   2.792
  165WNA     DN  333   0.970   2.922   2.627
  166WNA     WN  334   2.062   2.211   5.161
  166WNA     DN  335   1.978   2.124   5.042
  167WNA     WN  336   0.639   4.938   5.976
  167WNA     DN  337   0.655   4.900   5.811
  168WNA     WN  338   3.742   4.153   3.645
  168WNA     DN  339   3.674   4.134   3.800
  169WNA     WN  340   5.648   0.900   5.376
  169WNA     DN  341   5.587   1.006   5.257
  170WNA     WN  342   0.614   4.512   6.184
  170WNA     DN  343   0.493   4.572   6.288
  171WNA     WN  344   0.627   3.277   4.779
  171WNA     DN  345   0.646   3.331   4.939
  172WNA     WN  346   4.333   5.409   3.674
  172WNA     DN  347   4.348   5.387   3.506
  173WNA     WN  348   5.283   0.736   5.709
  173WNA     DN  349   5.313   0.689   5.870
  174WNA     WN  350   4.389   2.546   3.686
  174WNA     DN  351   4.232   2.611   3.688
  175WNA     WN  352   0.171   0.697   0.602
  175WNA     DN  353   0.162   0.720   0.434
  176WNA     WN  354   1.556   5.382   4.674
  176WNA     DN  355   1.461   5.310   4.552
  177WNA     WN  356   4.889   0.194   4.180
  177WNA     DN  357   4.997   0.119   4.288
  178WNA     WN  358   1.253   6.085   3.921
  178WNA     DN  359   1.111   6.177   3.932
  179WNA     WN  360   5.674   3.550   2.148
  179WNA     DN  361   5.531   3.634   2.110
  180WNA     WN  362   5.400   5.025   6.056
  180WNA     DN  363   5.273   5.129   6.011
  181WNA     WN  364   5.383   6.058   2.974
  181WNA     DN  365   5.219   6.034   3.011
  182WNA     WN  366   1.922   2.094   3.499
  182WNA     DN  367   1.822   2.041   3.626
  183WNA     WN  368   0.365   1.177   0.454
  183WNA     DN  369   0.455   1.257   0.574
  184WNA     WN  370   2.816   5.570   0.152
  184WNA     DN  371   2.696   5.566   0.032
  185WNA     WN  372   0.752   0.983   0.826
  185WNA     DN  373   0.803   0.823   0.853
  186WNA     WN  374   1.507   3.377   3.511
  186WNA     DN  375   1.537   3.213   3.544
  187WNA     WN  376   2.274   2.948   3.386
  187WNA     DN  377   2.335   2.913   3.231
  188WNA     WN  378   3.981   3.500   2.235
  188WNA     DN  379   4.048   3.653   2.203
  189WNA     WN  380   2.589   5.096   6.229
  189WNA     DN  381   2.611   5.112   6.397
  190WNA     WN  382   5.763   4.737   5.185
  190WNA     DN  383   5.846   4.703   5.329
  191WNA     WN  384   4.865   6.068   5.402
  191WNA     DN  385   4.842   5.936   5.297
  192WNA     WN  386   6.172   2.291   1.870
  192WNA     DN  387   6.240   2.439   1.821
  193WNA     WN  388   6.192   3.148   3.030
  193WNA     DN  389   6.177   3.303   2.961
  194WNA     WN  390   0.942   3.965   4.687
  194WNA     DN  391   0.912   3.817   4.608
  195WNA     WN  392   6.034   2.386   4.993
  195WNA     DN  393   6.200   2.351   4.987
  196WNA     WN  394   1.319   4.940   2.250
  196WNA     DN  395   1.224   5.080   2.262
  197WNA     WN  396   1.908   0.674   5.163
  197WNA     DN  397   2.055   0.618   5.098
  198WNA     WN  398   4.876   4.218   3.623
  198WNA     DN  399   4.984   4.196   3.752
  199WNA     WN  400   5.913   4.489   4.565
  199WNA     DN  401   5.748   4.530   4.569
  200WNA     WN  402   3.713   3.780   1.013
  200WNA     DN  403   3.683   3.796   1.180
  201WNA     WN  404   4.296   0.287   2.983
  201WNA     DN  405   4.232   0.303   2.826
  202WNA     WN  406   1.595   0.231   2.349
  202WNA     DN  407   1.762   0.214   2.374
  203WNA     WN  408   1.773   5.572   3.955
  203WNA     DN  409   1.671   5.436   3.960
  204WNA     WN  410   6.109   4.951   5.464
  204WNA     DN  411   6.196   4.867   5.584
  205WNA     WN  412   3.298   0.215   0.149
  205WNA     DN  413   3.297   0.344   0.039
  206WNA     WN  414   4.273   3.824   0.113
  206WNA     DN  415   4.414   3.919   0.107
  207WNA     WN  416   5.633   4.302   0.064
  207WNA     DN  417   5.782   4.330   0.141
  208WNA     WN  418   3.849   0.731   1.489
  208WNA     DN  419   3.755   0.688   1.354
  209WNA     WN  420   5.286   5.119   4.140
  209WNA     DN  421   5.221   5.013   4.256
  210WNA     WN  422   3.090   5.683   3.810
  210WNA     DN  423   3.037   5.604   3.951
  211WNA     WN  424   6.166   1.958   4.458
  211WNA     DN  425   6.062   2.062   4.544
  212WNA     WN  426   2.981   2.744   1.648
  212WNA     DN  427   2.925   2.757   1.488
  213WNA     WN  428   5.977   3.521   1.700
  213WNA     DN  429   5.861   3.402   1.737
  214WNA     WN  430   1.853   2.398   6.116
  214WNA     DN  431   1.914   2.239   6.120
  215WNA     WN  432   5.619   2.612   4.229
  215WNA     DN  433   5.674   2.701   4.095
  216WNA     WN  434   2.101   1.500   3.435
  216WNA     DN  435   2.045   1.574   3.577
  217WNA     WN  436   4.890   0.702   2.802
  217WNA     DN  437   4.919   0.665   2.639
  218WNA     WN  438   4.151   2.974   2.308
  218WNA     DN  439   4.139   2.805   2.294
  219WNA     WN  440   1.697   2.381   2.932
  219WNA     DN  441   1.824   2.371   3.045
  220WNA     WN  442   4.470   2.094   4.564
  220WNA     DN  443   4.522   2.227   4.472
  221WNA     WN  444   3.075   5.208   0.466
  221WNA     DN  445   3.050   5.342   0.364
  222WNA     WN  446   5.714   2.802   5.801
  222WNA     DN  447   5.547   2.821   5.773
  223WNA     WN  448   3.592   0.149   5.507
  223WNA     DN  449   3.498   0.275   5.571
  224WNA     WN  450   4.720   4.152   0.339
  224WNA     DN  451   4.569   4.103   0.400
  225WNA     WN  452   0.393   6.026   4.478
  225WNA     DN  453   0.349   5.862   4.475
  226WNA     WN  454   5.361   5.990   0.453
  226WNA     DN  455   5.410   6.040   0.608
  227WNA     WN  456   3.405   5.177   5.192
  227WNA     DN  457   3.282   5.229   5.298
  228WNA     WN  458   5.969   2.694   3.148
  228WNA     DN  459   5.994   2.821   3.037
  229WNA     WN  460   0.002   1.529   4.746
  229WNA     DN  461   0.040   1.670   4.659
  230WNA     WN  462   3.282   4.177   5.425
  230WNA     DN  463   3.305   4.304   5.535
  231WNA     WN  464   2.805   2.419   2.058
  231WNA     DN  465   2.697   2.463   2.182
  232WNA     WN  466   1.520   5.346   5.958
  232WNA     DN  467   1.679   5.289   5.934
  233WNA     WN  468   4.716   3.589   0.187
  233WNA     DN  469   4.579   3.688   0.199
  234WNA     WN  470   1.840   2.652   4.579
  234WNA     DN  471   1.811   2.790   4.485
  235WNA     WN  472   5.056   2.878   1.622
  235WNA     DN  473   5.156   3.015   1.627
  236WNA     WN  474   5.913   0.350   2.834
  236WNA     DN  475   5.841   0.315   2.984
  237WNA     WN  476   0.464   3.311   6.147
  237WNA     DN  477   0.630   3.274   6.159
  238WNA     WN  478   3.090   5.564   5.968
  238WNA     DN  479   3.186   5.701   5.938
  239WNA     WN  480   0.483   2.954   0.841
  239WNA     DN  481   0.492   3.076   0.959
  240WNA     WN  482   0.126   1.641   0.634
  240WNA     DN  483   0.042   1.524   0.724
  241WNA     WN  484   2.402   0.496   6.063
  241WNA     DN  485   2.493   0.432   5.934
  242WNA     WN  486   5.613   2.279   5.292
  242WNA     DN  487   5.491   2.369   5.215
  243WNA     WN  488   3.543   1.486   5.332
  243WNA     DN  489   3.393   1.436   5.269
  244WNA     WN  490   2.628   4.501   6.153
  244WNA     DN  491   2.464   4.483   6.192
  245WNA     WN  492   4.113   3.350   5.191
  245WNA     DN  493   4.097   3.215   5.089
  246WNA     WN  494   4.417   1.263   4.451
  246WNA     DN  495   4.382   1.115   4.527
  247WNA     WN  496   0.527   4.927   5.433
  247WNA     DN  497   0.534   4.945   5.264
  248WNA     WN  498   2.747   6.097   3.948
  248WNA     DN  499   2.787   5.933   3.970
  249WNA     WN  500   1.345   6.146   2.613
  249WNA     DN  501   1.285   6.046   2.489
  250WNA     WN  502   4.150   2.255   1.421
  250WNA     DN  503   4.306   2.315   1.450
  251WNA     WN  504   2.882   0.702   1.318
  251WNA     DN  505   2.734   0.780   1.286
  252WNA     WN  506   1.108   4.013   2.067
  252WNA     DN  507   1.034   4.031   2.219
  253WNA     WN  508   1.782   3.729   3.372
  253WNA     DN  509   1.728   3.624   3.494
  254WNA     WN  510   1.367   1.750   4.832
  254WNA     DN  511   1.451   1.609   4.787
  255WNA     WN  512   0.404   0.300   2.476
  255WNA     DN  513   0.421   0.452   2.551
  256WNA     WN  514   4.433   3.697   0.559
  256WNA     DN  515   4.448   3.528   0.565
  257WNA     WN  516   1.434   5.315   1.194
  257WNA     DN  517   1.532   5.316   1.055
  258WNA     WN  518   3.164   2.528   4.163
  258WNA     DN  519   3.330   2.529   4.126
  259WNA     WN  520   2.762   5.574   5.542
  259WNA     DN  521   2.685   5.609   5.395
  260WNA     WN  522   2.010   4.528   4.467
  260WNA     DN  523   2.090   4.674   4.504
  261WNA     WN  524   3.467   1.106   1.332
  261WNA     DN  525   3.551   1.242   1.274
  262WNA     WN  526   5.100   5.279   1.871
  262WNA     DN  527   5.144   5.147   1.968
  263WNA     WN  528   5.049   5.301   0.776
  263WNA     DN  529   5.101   5.421   0.667
  264WNA     WN  530   3.629   2.058   0.741
  264WNA     DN  531   3.665   2.065   0.575
  265WNA     WN  532   2.901   6.219   0.438
  265WNA     DN  533   2.972   6.369   0.401
  266WNA     WN  534   0.942   4.932   2.675
  266WNA     DN  535   0.904   4.966   2.513
  267WNA     WN  536   2.945   4.399   3.177
  267WNA     DN  537   2.811   4.490   3.228
  268WNA     WN  538   1.271   3.078   1.747
  268WNA     DN  539   1.120   3.009   1.710
  269WNA     WN  540   2.475   0.720   2.923
  269WNA     DN  541   2.443   0.573   2.844
  270WNA     WN  542   2.608   2.657   4.912
  270WNA     DN  543   2.540   2.750   4.787
  271WNA     WN  544   5.607   3.722   5.318
  271WNA     DN  545   5.546   3.781   5.465
  272WNA     WN  546   1.300   0.318   5.573
  272WNA     DN  547   1.425   0.239   5.489
  273WNA     WN  548   1.082   1.597   3.183
  273WNA     DN  549   0.992   1.677   3.063
  274WNA     WN  550   1.621   3.633   2.437
  274WNA     DN  551   1.488   3.552   2.369
  275WNA     WN  552   4.696   0.791   0.422
  275WNA     DN  553   4.765   0.943   0.452
  276WNA     WN  554   4.954   4.763   3.281
  276WNA     DN  555   4.954   4.767   3.111
  277WNA     WN  556   2.916   1.899   6.117
  277WNA     DN  557   2.841   1.893   6.270
  278WNA     WN  558   4.354   4.840   1.976
  278WNA     DN  559   4.377   4.761   2.125
  279WNA     WN  560   0.998   3.429   3.035
  279WNA     DN  561   1.147   3.472   3.104
  280WNA     WN  562   4.032   3.879   5.715
  280WNA     DN  563   3.985   3.913   5.555
  281WNA     WN  564   4.043   5.214   0.149
  281WNA     DN  565   4.038   5.185   0.316
  282WNA     WN  566   3.507   0.929   1.849
  282WNA     DN  567   3.602   0.891   1.713
  283WNA     WN  568   5.901   4.596   1.737
  283WNA     DN  569   6.032   4.559   1.838
  284WNA     WN  570   2.243   3.939   4.475
  284WNA     DN  571   2.142   3.804   4.499
  285WNA     WN  572   3.452   3.107   4.708
  285WNA     DN  573   3.613   3.057   4.687
  286WNA     WN  574   5.831   5.873   2.241
  286WNA     DN  575   5.680   5.881   2.318
  287WNA     WN  576   1.999   6.164   3.185
  287WNA     DN  577   2.012   6.261   3.046
  288WNA     WN  578   4.357   1.503   0.686
  288WNA     DN  579   4.315   1.655   0.623
  289WNA     WN  580   0.891   3.984   1.093
  289WNA     DN  581   0.869   3.834   1.017
  290WNA     WN  582   1.020   0.193   0.911
  290WNA     DN  583   1.129   0.064   0.928
  291WNA     WN  584   1.291   2.306   0.932
  291WNA     DN  585   1.272   2.460   1.002
  292WNA     WN  586   2.226   5.121   5.340
  292WNA     DN  587   2.328   5.168   5.468
  293WNA     WN  588   4.531   0.475   2.051
  293WNA     DN  589   4.582   0.634   2.018
  294WNA     WN  590   4.531   1.478   3.422
  294WNA     DN  591   4.522   1.556   3.271
  295WNA     WN  592   0.287   5.262   2.141
  295WNA     DN  593   0.195   5.178   2.256
  296WNA     WN  594   0.739   5.230   3.566
  296WNA     DN  595   0.720   5.396   3.596
  297WNA     WN  596   0.122   6.018   1.221
  297WNA     DN  597   0.090   6.182   1.253
  298WNA     WN  598   1.939   0.302   0.248
  298WNA     DN  599   2.103   0.266   0.223
  299WNA     WN  600   0.057   1.246   1.294
  299WNA     DN  601  -0.004   1.405   1.295
  300WNA     WN  602   0.449   2.305   3.571
  300WNA     DN  603   0.453   2.148   3.506
  301WNA     WN  604   6.079   3.282   1.304
  301WNA     DN  605   6.046   3.418   1.400
  302WNA     WN  606   3.930   1.703   5.330
  302WNA     DN  607   3.925   1.542   5.277
  303WNA     WN  608   2.156   4.371   0.731
  303WNA     DN  609   2.276   4.322   0.841
  304WNA     WN  610   2.539   3.259   6.208
  304WNA     DN  611   2.704   3.235   6.239
  305WNA     WN  612   4.524   0.914   5.571
  305WNA     DN  613   4.423   0.779   5.595
  306WNA     WN  614   1.192   3.343   5.441
  306WNA     DN  615   1.045   3.274   5.491
  307WNA     WN  616   3.629   5.898   4.460
  307WNA     DN  617   3.468   5.935   4.501
  308WNA     WN  618   1.570   1.043   5.206
  308WNA     DN  619   1.633   1.084   5.053
  309WNA     WN  620   2.348   3.274   1.869
  309WNA     DN  621   2.374   3.384   1.742
  310WNA     WN  622   4.023   5.856   4.839
  310WNA     DN  623   3.992   5.710   4.757
  311WNA     WN  624   3.001   0.571   3.102
  311WNA     DN  625   2.920   0.433   3.158
  312WNA     WN  626   5.773   2.572   1.845
  312WNA     DN  627   5.674   2.652   1.958
  313WNA     WN  628   0.877   5.333   2.330
  313WNA     DN  629   1.003   5.242   2.260
  314WNA     WN  630   2.111   1.183   1.330
  314WNA     DN  631   2.182   1.333   1.293
  315WNA     WN  632   3.167   0.623   2.183
  315WNA     DN  633   3.197   0.785   2.141
  316WNA     WN  634   6.022   5.376   4.443
  316WNA     DN  635   5.884   5.290   4.395
  317WNA     WN  636   1.102   2.213   3.972
  317WNA     DN  637   0.962   2.200   3.876
  318WNA     WN  638   0.169   4.999   5.088
  318WNA     DN  639   0.240   5.153   5.078
  319WNA     WN  640   0.466   2.005   4.716
  319WNA     DN  641   0.624   2.025   4.658
  320WNA     WN  642   6.105   0.559   5.459
  320WNA     DN  643   5.960   0.532   5.544
  321WNA     WN  644   4.760   5.883   1.138
  321WNA     DN  645   4.683   6.034   1.148
  322WNA     WN  646   4.574   2.951   2.738
  322WNA     DN  647   4.493   2.954   2.589
  323WNA     WN  648   0.620   3.171   1.234
  323WNA     DN  649   0.678   3.016   1.274
  324WNA     WN  650   2.757   4.428   1.222
  324WNA     DN  651   2.796   4.418   1.387
  325WNA     WN  652   0.766   2.299   5.614
  325WNA     DN  653   0.802   2.231   5.766
  326WNA     WN  654   4.731   0.473   5.721
  326WNA     DN  655   4.602   0.532   5.628
  327WNA     WN  656   0.243   0.232   4.740
  327WNA     DN  657   0.195   0.359   4.638
  328WNA     WN  658   1.399   5.196   3.590
  328WNA     DN  659   1.345   5.035   3.595
  329WNA     WN  660   5.887   1.951   3.118
  329WNA     DN  661   5.750   1.884   3.193
  330WNA     WN  662   2.360   5.530   5.170
  330WNA     DN  663   2.255   5.632   5.257
  331WNA     WN  664   4.783   2.805   4.069
  331WNA     DN  665   4.947   2.764   4.047
  332WNA     WN  666   3.401   3.068   5.433
  332WNA     DN  667   3.310   3.110   5.296
  333WNA     WN  668   5.217   2.543   3.991
  333WNA     DN  669   5.178   2.573   4.154
  334WNA     WN  670   5.967   5.575   5.983
  334WNA     DN  671   5.975   5.655   5.833
  335WNA     WN  672   1.415   1.205   3.785
  335WNA     DN  673   1.584   1.203   3.769
  336WNA     WN  674   5.090   5.521   4.372
  336WNA     DN  675   5.036   5.459   4.223
  337WNA     WN  676   5.540   1.336   3.185
  337WNA     DN  677   5.402   1.291   3.097
  338WNA     WN  678   0.901   2.187   2.211
  338WNA     DN  679   0.989   2.232   2.072
  339WNA     WN  680   3.622   0.482   1.927
  339WNA     DN  681   3.564   0.322   1.931
  340WNA     WN  682   5.832   0.128   1.964
  340WNA     DN  683   5.683   0.181   1.902
  341WNA     WN  684   5.760   2.038   1.591
  341WNA     DN  685   5.597   2.022   1.545
  342WNA     WN  686   3.898   2.739   3.603
  342WNA     DN  687   4.009   2.739   3.475
  343WNA     WN  688   0.402   6.070   3.370
  343WNA     DN  689   0.282   6.049   3.488
  344WNA     WN  690   1.981   4.662   1.854
  344WNA     DN  691   2.078   4.524   1.835
  345WNA     WN  692   2.710   1.430   1.717
  345WNA     DN  693   2.550   1.419   1.775
  346WNA     WN  694   6.227   5.921   0.362
  346WNA     DN  695   6.254   6.068   0.442
  347WNA     WN  696   4.364   4.691   1.524
  347WNA     DN  697   4.480   4.650   1.406
  348WNA     WN  698   0.971   1.716   1.969
  348WNA     DN  699   1.073   1.769   2.094
  349WNA     WN  700   2.652   4.311   5.106
  349WNA     DN  701   2.511   4.218   5.122
  350WNA     WN  702   0.684   0.092   1.371
  350WNA     DN  703   0.751  -0.001   1.496
  351WNA     WN  704   5.097   5.204   5.672
  351WNA     DN  705   5.133   5.211   5.506
  352WNA     WN  706   5.641   6.056   3.719
  352WNA     DN  707   5.696   6.163   3.839
  353WNA     WN  708   4.845   1.153   4.581
  353WNA     DN  709   5.006   1.206   4.589
  354WNA     WN  710   1.842   3.824   4.834
  354WNA     DN  711   1.929   3.740   4.954
  355WNA     WN  712   0.070   3.923   4.622
  355WNA     DN  713   0.074   3.758   4.665
  356WNA     WN  714   2.647   4.920   4.716
  356WNA     DN  715   2.584   4.843   4.578
  357WNA     WN  716   0.687   2.521   3.078
  357WNA     DN  717   0.609   2.672   3.071
  358WNA     WN  718   2.797   3.141   2.862
  358WNA     DN  719   2.946   3.221   2.847
  359WNA     WN  720   4.119   4.163   1.673
  359WNA     DN  721   4.265   4.222   1.737
  360WNA     WN  722   1.940   3.934   0.949
  360WNA     DN  723   2.058   3.979   0.836
  361WNA     WN  724   1.371   5.066   0.224
  361WNA     DN  725   1.410   5.231   0.219
  362WNA     WN  726   0.323   2.966   4.508
  362WNA     DN  727   0.320   3.020   4.347
  363WNA     WN  728   5.356   4.183   0.890
  363WNA     DN  729   5.276   4.256   1.021
  364WNA     WN  730   3.974   0.931   2.731
  364WNA     DN  731   3.995   0.783   2.650
  365WNA     WN  732   4.253   4.656   4.325
  365WNA     DN  733   4.103   4.690   4.398
  366WNA     WN  734   2.520   6.044   4.409
  366WNA     DN  735   2.546   6.122   4.558
  367WNA     WN  736   4.872   0.090   3.127
  367WNA     DN  737   4.965  -0.046   3.085
  368WNA     WN  738   4.388   3.358   2.672
  368WNA     DN  739   4.299   3.455   2.779
  369WNA     WN  740   3.699   4.525   4.552
  369WNA     DN  741   3.704   4.695   4.556
  370WNA     WN  742   0.062   4.828   1.649
  370WNA     DN  743  -0.052   4.785   1.530
  371WNA     WN  744   2.021   2.668   1.210
  371WNA     DN  745   1.919   2.804   1.218
  372WNA     WN  746   3.878   2.048   5.760
  372WNA     DN  747   4.021   1.974   5.705
  373WNA     WN  748   5.588   2.987   3.370
  373WNA     DN  749   5.455   2.943   3.467
  374WNA     WN  750   1.142   0.837   2.748
  374WNA     DN  751   1.155   0.946   2.878
  375WNA     WN  752   0.470   3.433   2.149
  375WNA     DN  753   0.375   3.363   2.027
  376WNA     WN  754   3.754   4.196   5.490
  376WNA     DN  755   3.761   4.181   5.321
  377WNA     WN  756   1.700   0.732   3.065
  377WNA     DN  757   1.846   0.791   3.129
  378WNA     WN  758   5.141   0.775   2.360
  378WNA     DN  759   5.309   0.749   2.366
  379WNA     WN  760   3.182   2.700   2.554
  379WNA     DN  761   3.061   2.805   2.610
  380WNA     WN  762   1.754   5.785   4.453
  380WNA     DN  763   1.719   5.800   4.287
  381WNA     WN  764   2.224   1.862   2.199
  381WNA     DN  765   2.288   1.770   2.071
  382WNA     WN  766   3.666   2.533   4.662
  382WNA     DN  767   3.800   2.599   4.744
  383WNA     WN  768   2.750   1.423   0.139
  383WNA     DN  769   2.918   1.405   0.156
  384WNA     WN  770   3.109   3.003   1.203
  384WNA     DN  771   3.107   2.854   1.285
  385WNA     WN  772   1.524   1.444   0.775
  385WNA     DN  773   1.370   1.372   0.785
  386WNA     WN  774   0.852   1.474   4.526
  386WNA     DN  775   0.837   1.629   4.457
  387WNA     WN  776   2.768   5.661   2.839
  387WNA     DN  777   2.728   5.759   2.706
  388WNA     WN  778   4.139   3.847   4.990
  388WNA     DN  779   3.988   3.900   5.046
  389WNA     WN  780   2.087   5.028   4.460
  389WNA     DN  781   1.995   5.036   4.603
  390WNA     WN  782   3.762   0.139   3.643
  390WNA     DN  783   3.605   0.107   3.699
  391WNA     WN  784   1.743   1.526   3.747
  391WNA     DN  785   1.792   1.574   3.591
  392WNA     WN  786   2.250   3.958   3.687
  392WNA     DN  787   2.246   3.828   3.577
  393WNA     WN  788   2.845   2.801   0.022
  393WNA     DN  789   2.802   2.848   0.180
  394WNA     WN  790   3.726   5.873   2.262
  394WNA     DN  791   3.781   5.831   2.417
  395WNA     WN  792   2.299   2.389   3.692
  395WNA     DN  793   2.146   2.460   3.715
  396WNA     WN  794   0.329   4.667   0.808
  396WNA     DN  795   0.415   4.580   0.926
  397WNA     WN  796   5.702   0.384   5.735
  397WNA     DN  797   5.861   0.387   5.676
  398WNA     WN  798   4.119   0.384   1.770
  398WNA     DN  799   4.268   0.309   1.735
  399WNA     WN  800   3.899   0.311   0.018
  399WNA     DN  801   3.953   0.471   0.040
  400WNA     WN  802   0.212   4.600   5.839
  400WNA     DN  803   0.072   4.663   5.913
  401WNA     WN  804   4.628   0.267   3.696
  401WNA     DN  805   4.532   0.127   3.689
  402WNA     WN  806   0.865   5.689   3.819
  402WNA     DN  807   0.750   5.785   3.899
  403WNA     WN  808   5.044   3.788   5.180
  403WNA     DN  809   4.876   3.798   5.155
  404WNA     WN  810   4.613   1.670   1.904
  404WNA     DN  811   4.765   1.718   1.963
  405WNA     WN  812   2.245   4.317   4.099
  405WNA     DN  813   2.246   4.180   4.200
  406WNA     WN  814   6.007   1.016   1.809
  406WNA     DN  815   6.072   1.162   1.752
  407WNA     WN  816   1.110   5.055   3.157
  407WNA     DN  817   1.278   5.072   3.138
  408WNA     WN  818   3.402   5.604   2.549
  408WNA     DN  819   3.428   5.702   2.685
  409WNA     WN  820   0.717   2.782   1.508
  409WNA     DN  821   0.572   2.857   1.556
  410WNA     WN  822   1.355   3.043   6.005
  410WNA     DN  823   1.505   3.074   6.078
  411WNA     WN  824   1.440   0.842   4.713
  411WNA     DN  825   1.568   0.730   4.702
  412WNA     WN  826   0.661   1.132   1.294
  412WNA     DN  827   0.676   1.077   1.454
  413WNA     WN  828   5.069   6.038   4.470
  413WNA     DN  829   5.108   6.202   4.494
  414WNA     WN  830   1.744   0.196   3.539
  414WNA     DN  831   1.586   0.185   3.476
  415WNA     WN  832   1.318   4.899   5.004
  415WNA     DN  833   1.278   5.054   5.060
  416WNA     WN  834   2.944   4.472   4.630
  416WNA     DN  835   2.806   4.457   4.728
  417WNA     WN  836   1.742   3.870   3.904
  417WNA     DN  837   1.779   4.035   3.922
  418WNA     WN  838   6.085   5.503   0.612
  418WNA     DN  839   5.981   5.375   0.571
  419WNA     WN  840   3.935   4.594   2.662
  419WNA     DN  841   4.003   4.681   2.532
  420WNA     WN  842   1.419   4.334   4.667
  420WNA     DN  843   1.544   4.424   4.738
  421WNA     WN  844   2.217   5.887   4.791
  421WNA     DN  845   2.054   5.839   4.781
  422WNA     WN  846   5.677   0.819   3.120
  422WNA     DN  847   5.640   0.958   3.029
  423WNA     WN  848   1.920   5.375   1.015
  423WNA     DN  849   1.824   5.262   0.933
  424WNA     WN  850   1.856   3.133   4.790
  424WNA     DN  851   2.004   3.067   4.842
  425WNA     WN  852   5.302   2.607   4.822
  425WNA     DN  853   5.319   2.687   4.971
  426WNA     WN  854   3.636   5.316   3.109
  426WNA     DN  855   3.693   5.189   3.011
  427WNA     WN  856   4.105   6.003   4.341
  427WNA     DN  857   4.078   6.076   4.492
  428WNA     WN  858   5.416   1.806   1.303
  428WNA     DN  859   5.455   1.646   1.345
  429WNA     WN  860   2.647   0.616   3.376
  429WNA     DN  861   2.711   0.640   3.220
  430WNA     WN  862   4.946   0.264   2.226
  430WNA     DN  863   5.105   0.213   2.194
  431WNA     WN  864   0.025   0.505   3.405
  431WNA     DN  865   0.067   0.599   3.270
  432WNA     WN  866   1.040   2.045   5.112
  432WNA     DN  867   0.950   2.189   5.125
  433WNA     WN  868   3.410   5.846   4.940
  433WNA     DN  869   3.361   5.712   4.847
  434WNA     WN  870   3.029   5.438   4.228
  434WNA     DN  871   3.036   5.550   4.100
  435WNA     WN  872   2.282   1.707   6.056
  435WNA     DN  873   2.113   1.719   6.068
  436WNA     WN  874   0.794   2.284   6.167
  436WNA     DN  875   0.807   2.420   6.268
  437WNA     WN  876   5.737   0.472   1.283
  437WNA     DN  877   5.900   0.519   1.290
  438WNA     WN  878   2.999   3.912   0.487
  438WNA     DN  879   2.950   3.802   0.367
  439WNA     WN  880   1.279   2.849   3.738
  439WNA     DN  881   1.331   3.005   3.694
  440WNA     WN  882   2.332   0.024   1.160
  440WNA     DN  883   2.242   0.130   1.062
  441WNA     WN  884   3.598   3.440   5.067
  441WNA     DN  885   3.717   3.549   5.120
  442WNA     WN  886   3.692   0.678   3.745
  442WNA     DN  887   3.533   0.730   3.717
  443WNA     WN  888   3.204   3.524   3.582
  443WNA     DN  889   3.191   3.365   3.524
  444WNA     WN  890   4.779   4.511   2.076
  444WNA     DN  891   4.730   4.377   1.983
  445WNA     WN  892   0.446   2.481   4.623
  445WNA     DN  893   0.535   2.474   4.478
  446WNA     WN  894   0.676   1.046   5.009
  446WNA     DN  895   0.592   1.183   4.953
  447WNA     WN  896   1.577   0.873   4.067
  447WNA     DN  897   1.582   0.973   3.930
  448WNA     WN  898   3.357   3.884   1.325
  448WNA     DN  899   3.285   3.978   1.203
  449WNA     WN  900   1.738   6.229   3.995
  449WNA     DN  901   1.569   6.247   3.989
  450WNA     WN  902   2.000   4.468   2.756
  450WNA     DN  903   1.922   4.496   2.905
  451WNA     WN  904   0.372   3.776   0.735
  451WNA     DN  905   0.349   3.759   0.567
  452WNA     WN  906   5.994   0.337   4.535
  452WNA     DN  907   6.086   0.371   4.396
  453WNA     WN  908   3.330   4.590   1.849
  453WNA     DN  909   3.495   4.566   1.880
  454WNA     WN  910   2.407   4.886   3.657
  454WNA     DN  911   2.525   4.951   3.762
  455WNA     WN  912   3.516   4.576   1.162
  455WNA     DN  913   3.366   4.526   1.099
  456WNA     WN  914   1.502   2.081   5.316
  456WNA     DN  915   1.631   2.164   5.389
  457WNA     WN  916   5.852   0.619   2.247
  457WNA     DN  917   5.807   0.764   2.323
  458WNA     WN  918   2.866   3.562   0.176
  458WNA     DN  919   2.965   3.596   0.310
  459WNA     WN  920   2.553   4.542   2.114
  459WNA     DN  921   2.505   4.704   2.130
  460WNA     WN  922   5.700   0.227   3.361
  460WNA     DN  923   5.747   0.315   3.224
  461WNA     WN  924   3.667   0.232   1.470
  461WNA     DN  925   3.553   0.255   1.346
  462WNA     WN  926   1.772   4.430   5.785
  462WNA     DN  927   1.649   4.470   5.675
  463WNA     WN  928   5.478   3.078   0.542
  463WNA     DN  929   5.338   2.986   0.573
  464WNA     WN  930   1.512   4.020   6.166
  464WNA     DN  931   1.590   3.869   6.159
  465WNA     WN  932   0.389   5.943   3.940
  465WNA     DN  933   0.302   5.806   3.989
  466WNA     WN  934   0.605   0.078   4.146
  466WNA     DN  935   0.707   0.125   4.274
  467WNA     WN  936   5.071   3.239   4.004
  467WNA     DN  937   5.081   3.333   3.863
  468WNA     WN  938   5.550   5.202   3.236
  468WNA     DN  939   5.543   5.370   3.211
  469WNA     WN  940   4.282   1.409   3.017
  469WNA     DN  941   4.408   1.508   2.961
  470WNA     WN  942   5.224   1.600   2.930
  470WNA     DN  943   5.062   1.591   2.880
  471WNA     WN  944   2.514   5.497   2.424
  471WNA     DN  945   2.551   5.331   2.434
  472WNA     WN  946   3.248   3.107   0.243
  472WNA     DN  947   3.337   3.232   0.171
  473WNA     WN  948   0.240   6.055   2.635
  473WNA     DN  949   0.106   6.140   2.696
  474WNA     WN  950   5.398   4.016   1.388
  474WNA     DN  951   5.395   3.911   1.254
  475WNA     WN  952   1.695   4.603   2.221
  475WNA     DN  953   1.780   4.668   2.353
  476WNA     WN  954   5.085   0.005   1.278
  476WNA     DN  955   5.186  -0.107   1.199
  477WNA     WN  956   2.265   0.403   1.541
  477WNA     DN  957   2.321   0.504   1.666
  478WNA     WN  958   3.438   2.573   3.325
  478WNA     DN  959   3.332   2.463   3.399
  479WNA     WN  960   6.184   0.291   0.198
  479WNA     DN  961   6.042   0.381   0.222
  480WNA     WN  962   5.403   4.021   4.423
  480WNA     DN  963   5.386   3.854   4.399
  481WNA     WN  964   2.211   0.200   3.815
  481WNA     DN  965   2.105   0.320   3.872
  482WNA     WN  966   1.863   1.066   0.525
  482WNA     DN  967   2.015   1.089   0.452
  483WNA     WN  968   0.699   1.064   5.592
  483WNA     DN  969   0.810   1.106   5.471
  484WNA     WN  970   3.428   5.174   2.290
  484WNA     DN  971   3.352   5.172   2.138
  485WNA     WN  972   2.365   1.988   0.472
  485WNA     DN  973   2.396   2.148   0.520
  486WNA     WN  974   1.312   5.535   5.520
  486WNA     DN  975   1.477   5.517   5.555
  487WNA     WN  976   0.973   0.570   1.216
  487WNA     DN  977   1.122   0.638   1.261
  488WNA     WN  978   0.049   5.702   2.083
  488WNA     DN  979  -0.022   5.561   2.021
  489WNA     WN  980   1.865   5.987   3.613
  489WNA     DN  981   1.700   5.963   3.643
  490WNA     WN  982   5.960   4.231   4.963
  490WNA     DN  983   5.907   4.082   5.025
  491WNA     WN  984   2.746   0.234   1.373
  491WNA     DN  985   2.740   0.067   1.404
  492WNA     WN  986   4.637   5.601   1.909
  492WNA     DN  987   4.753   5.691   1.823
  493WNA     WN  988   2.856   0.370   2.680
  493WNA     DN  989   2.937   0.225   2.715
  494WNA     WN  990   5.960   5.466   3.493
  494WNA     DN  991   5.947   5.350   3.369
  495WNA     WN  992   0.425   1.385   3.898
  495WNA     DN  993   0.373   1.401   3.737
  496WNA     WN  994   2.335   3.671   1.030
  496WNA     DN  995   2.174   3.667   0.976
  497WNA     WN  996   1.053   4.018   1.597
  497WNA     DN  997   1.191   4.054   1.690
  498WNA     WN  998   0.242   1.493   0.146
  498WNA     DN  999   0.076   1.505   0.183
  499WNA     WN 1000   4.083   2.572   5.607
  499WNA     DN 1001   3.997   2.427   5.628
  500WNA     WN 1002   1.265   5.882   0.500
  500WNA     DN 1003   1.221   5.767   0.617
  501WNA     WN 1004   3.839   4.734   3.249
  501WNA     DN 1005   3.671   4.729   3.222
  502WNA     WN 1006   2.828   2.197   2.909
  502WNA     DN 1007   2.989   2.147   2.888
  503WNA     WN 1008   4.941   2.500   4.505
  503WNA     DN 1009   4.910   2.466   4.341
  504WNA     WN 1010   0.662   0.172   5.060
  504WNA     DN 1011   0.572   0.186   4.916
  505WNA     WN 1012   5.614   0.636   4.691
  505WNA     DN 1013   5.533   0.555   4.565
  506WNA     WN 1014   1.417   1.184   2.356
  506WNA     DN 1015   1.479   1.254   2.214
  507WNA     WN 1016   5.968   4.290   2.437
  507WNA     DN 1017   6.063   4.305   2.577
  508WNA     WN 1018   0.356   1.279   3.431
  508WNA     DN 1019   0.305   1.430   3.490
  509WNA     WN 1020   6.120   3.648   0.762
  509WNA     DN 1021   6.112   3.803   0.692
  510WNA     WN 1022   2.556   4.135   0.275
  510WNA     DN 1023   2.526   4.194   0.432
  511WNA     WN 1024   2.018   1.087   2.989
  511WNA     DN 1025   2.176   1.149   2.982
  512WNA     WN 1026   0.318   1.336   5.398
  512WNA     DN 1027   0.462   1.394   5.329
  513WNA     WN 1028   3.498   3.857   5.823
  513WNA     DN 1029   3.564   3.743   5.716
  514WNA     WN 1030   3.633   5.426   4.667
  514WNA     DN 1031   3.471   5.448   4.621
  515WNA     WN 1032   1.029   4.909   1.406
  515WNA     DN 1033   0.934   5.049   1.418
  516WNA     WN 1034   0.144   0.544   2.877
  516WNA     DN 1035   0.200   0.704   2.884
  517WNA     WN 1036   4.935   2.564   2.130
  517WNA     DN 1037   4.887   2.625   2.281
  518WNA     WN 1038   3.769   3.683   3.392
  518WNA     DN 1039   3.856   3.550   3.333
  519WNA     WN 1040   4.115   1.459   1.155
  519WNA     DN 1041   4.133   1.527   1.310
  520WNA     WN 1042   4.341   0.634   6.067
  520WNA     DN 1043   4.446   0.664   5.937
  521WNA     WN 1044   1.438   0.446   1.037
  521WNA     DN 1045   1.411   0.312   0.936
  522WNA     WN 1046   3.067   1.293   3.519
  522WNA     DN 1047   3.227   1.314   3.465
  523WNA     WN 1048   0.022   0.090   3.078
  523WNA     DN 1049   0.018  -0.011   3.215
  524WNA     WN 1050   1.908   1.040   5.594
  524WNA     DN 1051   1.850   1.093   5.745
  525WNA     WN 1052   1.060   5.475   0.302
  525WNA     DN 1053   1.221   5.506   0.256
  526WNA     WN 1054   0.786   5.821   5.089
  526WNA     DN 1055   0.690   5.883   5.215
  527WNA     WN 1056   5.086   1.804   3.800
  527WNA     DN 1057   5.011   1.838   3.651
  528WNA     WN 1058   4.513   0.020   4.905
  528WNA     DN 1059   4.542  -0.140   4.854
  529WNA     WN 1060   6.163   0.175   5.094
  529WNA     DN 1061   6.156   0.101   4.941
  530WNA     WN 1062   4.417   5.204   2.612
  530WNA     DN 1063   4.323   5.245   2.748
  531WNA     WN 1064   1.058   0.385   3.390
  531WNA     DN 1065   1.054   0.232   3.464
  532WNA     WN 1066   2.983   1.838   3.588
  532WNA     DN 1067   2.848   1.939   3.607
  533WNA     WN 1068   1.829   3.404   1.713
  533WNA     DN 1069   1.715   3.336   1.820
  534WNA     WN 1070   3.825   0.198   4.150
  534WNA     DN 1071   3.860   0.296   4.015
  535WNA     WN 1072   3.010   0.796   2.688
  535WNA     DN 1073   3.003   0.713   2.540
  536WNA     WN 1074   2.505   0.605   2.426
  536WNA     DN 1075   2.549   0.762   2.379
  537WNA     WN 1076   1.765   4.029   4.426
  537WNA     DN 1077   1.679   4.141   4.331
  538WNA     WN 1078   6.221   2.899   0.017
  538WNA     DN 1079   6.305   3.041  -0.023
  539WNA     WN 1080   1.066   5.569   0.993
  539WNA     DN 1081   1.131   5.693   1.090
  540WNA     WN 1082   3.538   1.957   5.401
  540WNA     DN 1083   3.625   2.078   5.482
  541WNA     WN 1084   4.661   5.131   1.740
  541WNA     DN 1085   4.631   4.965   1.760
  542WNA     WN 1086   4.293   0.526   3.959
  542WNA     DN 1087   4.377   0.397   3.887
  543WNA     WN 1088   4.846   4.749   1.537
  543WNA     DN 1089   4.844   4.671   1.386
  544WNA     WN 1090   5.407   0.670   3.555
  544WNA     DN 1091   5.482   0.534   3.625
  545WNA     WN 1092   2.170   0.224   0.705
  545WNA     DN 1093   2.335   0.244   0.742
  546WNA     WN 1094   0.591   3.306   1.703
  546WNA     DN 1095   0.586   3.170   1.601
  547WNA     WN 1096   2.994   0.662   5.863
  547WNA     DN 1097   3.102   0.587   5.971
  548WNA     WN 1098   4.110   4.989   1.161
  548WNA     DN 1099   4.264   5.005   1.091
  549WNA     WN 1100   2.323   5.776   5.594
  549WNA     DN 1101   2.225   5.886   5.508
  550WNA     WN 1102   3.336   1.193   5.994
  550WNA     DN 1103   3.372   1.030   5.962
  551WNA     WN 1104   0.503   4.453   3.407
  551WNA     DN 1105   0.343   4.411   3.448
  552WNA     WN 1106   3.860   4.482   5.041
  552WNA     DN 1107   3.890   4.513   5.205
  553WNA     WN 1108   5.883   1.413   0.326
  553WNA     DN 1109   5.811   1.363   0.180
  554WNA     WN 1110   1.906   0.495   6.048
  554WNA     DN 1111   2.062   0.535   6.102
  555WNA     WN 1112   2.305   1.758   5.236
  555WNA     DN 1113   2.168   1.664   5.200
  556WNA     WN 1114   0.770   0.313   6.180
  556WNA     DN 1115   0.685   0.167   6.159
  557WNA     WN 1116   2.478   0.542   1.097
  557WNA     DN 1117   2.340   0.597   1.015
  558WNA     WN 1118   1.778   4.963   1.381
  558WNA     DN 1119   1.724   5.039   1.523
  559WNA     WN 1120   3.526   3.722   2.349
  559WNA     DN 1121   3.414   3.597   2.323
  560WNA     WN 1122   2.785   2.378   1.163
  560WNA     DN 1123   2.659   2.267   1.191
  561WNA     WN 1124   0.843   2.601   3.605
  561WNA     DN 1125   0.881   2.752   3.537
  562WNA     WN 1126   1.144   0.015   5.924
  562WNA     DN 1127   1.209  -0.017   6.078
  563WNA     WN 1128   0.104   3.818   0.337
  563WNA     DN 1129   0.029   3.879   0.477
  564WNA     WN 1130   3.746   1.738   3.530
  564WNA     DN 1131   3.715   1.596   3.618
  565WNA     WN 1132   1.873   4.352   4.984
  565WNA     DN 1133   1.719   4.367   5.054
  566WNA     WN 1134   4.468   5.967   1.566
  566WNA     DN 1135   4.332   5.876   1.521
  567WNA     WN 1136   3.095   1.058   0.274
  567WNA     DN 1137   3.121   0.978   0.422
  568WNA     WN 1138   3.246   3.016   4.231
  568WNA     DN 1139   3.357   2.890   4.256
  569WNA     WN 1140   0.239   2.160   4.034
  569WNA     DN 1141   0.309   2.129   3.882
  570WNA     WN 1142   3.233   1.121   5.473
  570WNA     DN 1143   3.367   1.085   5.572
  571WNA     WN 1144   1.061   0.827   3.914
  571WNA     DN 1145   0.982   0.951   3.830
  572WNA     WN 1146   0.206   3.887   3.988
  572WNA     DN 1147   0.233   3.793   4.127
  573WNA     WN 1148   0.263   2.577   0.591
  573WNA     DN 1149   0.255   2.613   0.425
  574WNA     WN 1150   6.181   3.408   2.108
  574WNA     DN 1151   6.230   3.458   2.263
  575WNA     WN 1152   2.072   3.301   0.762
  575WNA     DN 1153   2.166   3.238   0.889
  576WNA     WN 1154   2.310   5.933   2.803
  576WNA     DN 1155   2.346   6.043   2.928
  577WNA     WN 1156   2.706   0.409   3.803
  577WNA     DN 1157   2.827   0.317   3.727
  578WNA     WN 1158   1.767   0.090   5.731
  578WNA     DN 1159   1.793   0.002   5.588
  579WNA     WN 1160   4.451   3.750   1.464
  579WNA     DN 1161   4.297   3.765   1.534
  580WNA     WN 1162   4.896   3.283   0.662
  580WNA     DN 1163   4.968   3.266   0.509
  581WNA     WN 1164   0.924   1.763   2.500
  581WNA     DN 1165   0.785   1.742   2.405
  582WNA     WN 1166   1.546   2.271   4.827
  582WNA     DN 1167   1.650   2.323   4.703
  583WNA     WN 1168   2.549   5.910   0.403
  583WNA     DN 1169   2.685   5.929   0.302
  584WNA     WN 1170   0.691   6.105   0.717
  584WNA     DN 1171   0.714   5.996   0.589
  585WNA     WN 1172   2.635   3.710   4.725
  585WNA     DN 1173   2.601   3.602   4.598
  586WNA     WN 1174   3.965   5.083   0.617
  586WNA     DN 1175   3.804   5.120   0.658
  587WNA     WN 1176   2.010   4.157   3.119
  587WNA     DN 1177   1.963   4.030   3.222
  588WNA     WN 1178   3.699   2.136   3.188
  588WNA     DN 1179   3.610   2.259   3.112
  589WNA     WN 1180   4.243   1.531   3.796
  589WNA     DN 1181   4.409   1.541   3.829
  590WNA     WN 1182   5.817   3.529   2.907
  590WNA     DN 1183   5.708   3.622   2.998
  591WNA     WN 1184   1.273   5.836   4.651
  591WNA     DN 1185   1.235   5.997   4.613
  592WNA     WN 1186   3.432   5.445   0.822
  592WNA     DN 1187   3.556   5.337   0.779
  593WNA     WN 1188   6.050   5.177   3.962
  593WNA     DN 1189   6.078   5.125   4.121
  594WNA     WN 1190   2.442   5.282   3.320
  594WNA     DN 1191   2.545   5.381   3.229
  595WNA     WN 1192   4.454   4.874   3.563
  595WNA     DN 1193   4.335   4.965   3.643
  596WNA     WN 1194   0.442   4.825   0.305
  596WNA     DN 1195   0.520   4.879   0.164
  597WNA     WN 1196   5.261   4.972   0.526
  597WNA     DN 1197   5.182   5.123   0.522
  598WNA     WN 1198   3.288   3.913   3.898
  598WNA     DN 1199   3.256   4.060   3.977
  599WNA     WN 1200   3.378   2.230   1.942
  599WNA     DN 1201   3.330   2.251   1.780
  600WNA     WN 1202   4.548   5.219   3.155
  600WNA     DN 1203   4.431   5.342   3.152
  601WNA     WN 1204   5.541   2.331   3.269
  601WNA     DN 1205   5.442   2.465   3.236
  602WNA     WN 1206   5.616   0.147   2.456
  602WNA     DN 1207   5.669   0.115   2.298
  603WNA     WN 1208   3.171   2.556   4.647
  603WNA     DN 1209   3.138   2.662   4.519
  604WNA     WN 1210   3.075   1.827   1.817
  604WNA     DN 1211   2.975   1.714   1.895
  605WNA     WN 1212   2.321   1.390   5.617
  605WNA     DN 1213   2.263   1.230   5.621
  606WNA     WN 1214   0.766   1.341   1.718
  606WNA     DN 1215   0.606   1.285   1.722
  607WNA     WN 1216   2.792   5.225   5.199
  607WNA     DN 1217   2.694   5.335   5.113
  608WNA     WN 1218   1.037   1.299   2.699
  608WNA     DN 1219   1.118   1.253   2.841
  609WNA     WN 1220   4.693   4.232   1.649
  609WNA     DN 1221   4.540   4.273   1.588
  610WNA     WN 1222   1.677   2.799   0.092
  610WNA     DN 1223   1.672   2.754  -0.072
  611WNA     WN 1224   5.038   2.496   3.136
  611WNA     DN 1225   4.916   2.381   3.108
  612WNA     WN 1226   3.859   2.073   1.920
  612WNA     DN 1227   4.015   2.011   1.894
  613WNA     WN 1228   5.996   3.442   5.389
  613WNA     DN 1229   5.978   3.607   5.427
  614WNA     WN 1230   0.198   0.083   6.004
  614WNA     DN 1231   0.043   0.018   6.029
  615WNA     WN 1232   3.028   2.221   2.497
  615WNA     DN 1233   3.169   2.316   2.491
  616WNA     WN 1234   0.635   4.932   4.589
  616WNA     DN 1235   0.665   4.960   4.754
  617WNA     WN 1236   2.566   1.905   1.739
  617WNA     DN 1237   2.397   1.910   1.761
  618WNA     WN 1238   1.283   1.119   0.552
  618WNA     DN 1239   1.220   1.152   0.398
  619WNA     WN 1240   4.608   5.130   5.687
  619WNA     DN 1241   4.480   5.143   5.797
  620WNA     WN 1242   4.552   0.913   3.995
  620WNA     DN 1243   4.611   1.065   4.044
  621WNA     WN 1244   5.402   1.171   4.406
  621WNA     DN 1245   5.483   1.037   4.473
  622WNA     WN 1246   5.281   3.978   6.117
  622WNA     DN 1247   5.130   3.985   6.039
  623WNA     WN 1248   1.571   0.038   0.734
  623WNA     DN 1249   1.733   0.010   0.693
  624WNA     WN 1250   1.942   6.044   0.492
  624WNA     DN 1251   2.016   5.941   0.605
  625WNA     WN 1252   5.855   3.861   3.722
  625WNA     DN 1253   5.748   3.736   3.681
  626WNA     WN 1254   0.564   1.817   0.983
  626WNA     DN 1255   0.516   1.878   1.134
  627WNA     WN 1256   5.744   1.782   4.070
  627WNA     DN 1257   5.912   1.782   4.098
  628WNA     WN 1258   5.880   2.380   2.784
  628WNA     DN 1259   5.827   2.228   2.729
  629WNA     WN 1260   0.680   1.728   3.380
  629WNA     DN 1261   0.817   1.779   3.467
  630WNA     WN 1262   1.379   3.812   4.645
  630WNA     DN 1263   1.312   3.934   4.743
  631WNA     WN 1264   5.588   5.398   2.306
  631WNA     DN 1265   5.559   5.560   2.262
  632WNA     WN 1266   3.335   5.579   1.999
  632WNA     DN 1267   3.238   5.495   1.888
  633WNA     WN 1268   2.160   0.759   0.171
  633WNA     DN 1269   2.229   0.911   0.201
  634WNA     WN 1270   2.688   4.138   4.249
  634WNA     DN 1271   2.653   4.108   4.413
  635WNA     WN 1272   2.970   0.918   1.746
  635WNA     DN 1273   3.036   1.051   1.829
  636WNA     WN 1274   1.518   2.303   2.379
  636WNA     DN 1275   1.378   2.340   2.290
  637WNA     WN 1276   5.807   0.739   4.249
  637WNA     DN 1277   5.952   0.740   4.160
  638WNA     WN 1278   1.516   4.257   1.839
  638WNA     DN 1279   1.381   4.357   1.868
  639WNA     WN 1280   3.274   4.378   2.678
  639WNA     DN 1281   3.412   4.472   2.644
  640WNA     WN 1282   4.716   2.293   4.088
  640WNA     DN 1283   4.602   2.316   3.964
  641WNA     WN 1284   1.373   4.713   1.202
  641WNA     DN 1285   1.224   4.635   1.224
  642WNA     WN 1286   3.515   6.058   5.882
  642WNA     DN 1287   3.437   6.174   5.978
  643WNA     WN 1288   1.823   1.906   6.159
  643WNA     DN 1289   1.712   1.779   6.180
  644WNA     WN 1290   6.030   5.734   1.662
  644WNA     DN 1291   6.020   5.808   1.815
  645WNA     WN 1292   2.925   4.775   3.815
  645WNA     DN 1293   2.860   4.655   3.715
  646WNA     WN 1294   3.064   2.482   3.616
  646WNA     DN 1295   2.899   2.458   3.646
  647WNA     WN 1296   5.271   1.389   3.930
  647WNA     DN 1297   5.438   1.401   3.901
  648WNA     WN 1298   1.118   2.559   1.815
  648WNA     DN 1299   1.267   2.637   1.791
  649WNA     WN 1300   2.111   1.035   6.002
  649WNA     DN 1301   2.080   1.162   6.110
  650WNA     WN 1302   4.619   2.651   0.523
  650WNA     DN 1303   4.601   2.713   0.680
  651WNA     WN 1304   4.901   4.761   2.752
  651WNA     DN 1305   4.884   4.912   2.676
  652WNA     WN 1306   1.473   3.407   4.156
  652WNA     DN 1307   1.496   3.534   4.266
  653WNA     WN 1308   5.052   4.577   4.657
  653WNA     DN 1309   4.991   4.445   4.745
  654WNA     WN 1310   1.063   3.537   1.579
  654WNA     DN 1311   1.109   3.593   1.733
  655WNA     WN 1312   0.693   5.254   2.894
  655WNA     DN 1313   0.625   5.409   2.875
  656WNA     WN 1314   6.096   5.453   5.493
  656WNA     DN 1315   6.102   5.601   5.576
  657WNA     WN 1316   6.062   5.234   3.081
  657WNA     DN 1317   6.099   5.377   2.998
  658WNA     WN 1318   2.234   0.076   5.457
  658WNA     DN 1319   2.228  -0.067   5.548
  659WNA     WN 1320   1.667   1.361   0.136
  659WNA     DN 1321   1.790   1.321   0.025
  660WNA     WN 1322   2.981   5.689   0.661
  660WNA     DN 1323   2.968   5.858   0.651
  661WNA     WN 1324   1.336   4.644   0.562
  661WNA     DN 1325   1.443   4.774   0.585
  662WNA     WN 1326   0.648   2.217   4.199
  662WNA     DN 1327   0.814   2.227   4.232
  663WNA     WN 1328   1.175   4.182   0.285
  663WNA     DN 1329   1.308   4.143   0.383
  664WNA     WN 1330   2.209   1.828   4.628
  664WNA     DN 1331   2.074   1.842   4.526
  665WNA     WN 1332   2.554   1.509   2.323
  665WNA     DN 1333   2.408   1.569   2.387
  666WNA     WN 1334   4.585   2.547   5.533
  666WNA     DN 1335   4.693   2.472   5.641
  667WNA     WN 1336   4.938   5.006   0.010
  667WNA     DN 1337   4.866   5.156   0.046
  668WNA     WN 1338   0.451   0.112   0.298
  668WNA     DN 1339   0.420   0.239   0.406
  669WNA     WN 1340   3.251   4.308   1.454
  669WNA     DN 1341   3.235   4.477   1.463
  670WNA     WN 1342   1.141   1.122   1.368
  670WNA     DN 1343   1.006   1.070   1.279
  671WNA     WN 1344   4.728   3.364   1.691
  671WNA     DN 1345   4.738   3.500   1.590
  672WNA     WN 1346   4.378   6.144   3.405
  672WNA     DN 1347   4.371   6.188   3.241
  673WNA     WN 1348   2.694   0.535   1.805
  673WNA     DN 1349   2.636   0.687   1.854
  674WNA     WN 1350   2.983   5.357   2.516
  674WNA     DN 1351   2.895   5.260   2.407
  675WNA     WN 1352   5.045   0.078   1.801
  675WNA     DN 1353   5.143   0.079   1.662
  676WNA     WN 1354   5.143   1.441   6.161
  676WNA     DN 1355   5.174   1.278   6.198
  677WNA     WN 1356   0.052   2.038   2.765
  677WNA     DN 1357  -0.011   1.880   2.773
  678WNA     WN 1358   6.065   4.990   3.496
  678WNA     DN 1359   5.959   4.880   3.570
  679WNA     WN 1360   3.449   2.356   2.777
  679WNA     DN 1361   3.522   2.415   2.635
  680WNA     WN 1362   5.602   5.336   3.851
  680WNA     DN 1363   5.477   5.388   3.748
  681WNA     WN 1364   0.501   5.635   4.697
  681WNA     DN 1365   0.625   5.742   4.651
  682WNA     WN 1366   4.164   4.065   0.646
  682WNA     DN 1367   4.050   3.954   0.705
  683WNA     WN 1368   4.615   5.546   0.822
  683WNA     DN 1369   4.677   5.523   0.666
  684WNA     WN 1370   3.346   0.467   4.213
  684WNA     DN 1371   3.248   0.596   4.162
  685WNA     WN 1372   2.160   2.285   0.865
  685WNA     DN 1373   2.270   2.337   0.746
  686WNA     WN 1374   3.051   4.207   5.876
  686WNA     DN 1375   3.163   4.252   5.756
  687WNA     WN 1376   1.612   5.620   2.620
  687WNA     DN 1377   1.443   5.629   2.603
  688WNA     WN 1378   0.544   4.778   1.292
  688WNA     DN 1379   0.653   4.889   1.361
  689WNA     WN 1380   5.846   3.394   3.970
  689WNA     DN 1381   5.881   3.230   3.940
  690WNA     WN 1382   3.469   3.798   0.468
  690WNA     DN 1383   3.616   3.721   0.506
  691WNA     WN 1384   5.311   2.051   6.072
  691WNA     DN 1385   5.182   1.941   6.055
  692WNA     WN 1386   1.709   0.608   0.592
  692WNA     DN 1387   1.566   0.516   0.592
  693WNA     WN 1388   2.964   1.827   1.327
  693WNA     DN 1389   3.066   1.864   1.458
  694WNA     WN 1390   4.585   2.244   1.780
  694WNA     DN 1391   4.594   2.350   1.647
  695WNA     WN 1392   6.102   0.255   1.554
  695WNA     DN 1393   6.239   0.323   1.629
  696WNA     WN 1394   3.795   1.905   4.007
  696WNA     DN 1395   3.720   2.002   4.125
  697WNA     WN 1396   4.764   2.835   3.509
  697WNA     DN 1397   4.711   2.691   3.582
  698WNA     WN 1398   3.727   0.298   0.466
  698WNA     DN 1399   3.667   0.436   0.386
  699WNA     WN 1400   4.911   2.879   6.017
  699WNA     DN 1401   5.052   2.802   6.074
  700WNA     WN 1402   2.748   1.056   3.121
  700WNA     DN 1403   2.728   1.018   3.286
  701WNA     WN 1404   4.203   5.875   2.018
  701WNA     DN 1405   4.114   5.783   2.130
  702WNA     WN 1406   2.759   3.788   3.705
  702WNA     DN 1407   2.906   3.834   3.634
  703WNA     WN 1408   0.166   1.859   5.126
  703WNA     DN 1409   0.259   1.748   5.215
  704WNA     WN 1410   2.502   0.887   5.779
  704WNA     DN 1411   2.480   0.968   5.631
  705WNA     WN 1412   0.228   2.478   2.779
  705WNA     DN 1413   0.365   2.529   2.866
  706WNA     WN 1414   0.037   6.210   4.237
  706WNA     DN 1415   0.177   6.254   4.322
  707WNA     WN 1416   2.971   5.805   4.490
  707WNA     DN 1417   2.979   5.912   4.622
  708WNA     WN 1418   0.473   4.301   3.918
  708WNA     DN 1419   0.628   4.317   3.850
  709WNA     WN 1420   3.833   5.038   5.450
  709WNA     DN 1421   3.898   4.971   5.592
  710WNA     WN 1422   5.058   0.048   5.829
  710WNA     DN 1423   5.058  -0.084   5.936
  711WNA     WN 1424   4.284   5.866   5.385
  711WNA     DN 1425   4.150   5.965   5.353
  712WNA     WN 1426   0.900   1.296   3.566
  712WNA     DN 1427   0.782   1.327   3.685
  713WNA     WN 1428   0.597   2.125   0.533
  713WNA     DN 1429   0.728   2.110   0.640
  714WNA     WN 1430   5.957   1.386   5.545
  714WNA     DN 1431   5.981   1.242   5.632
  715WNA     WN 1432   2.918   4.386   0.610
  715WNA     DN 1433   2.935   4.298   0.755
  716WNA     WN 1434   1.920   0.524   1.048
  716WNA     DN 1435   2.074   0.596   1.047
  717WNA     WN 1436   6.216   2.649   1.037
  717WNA     DN 1437   6.292   2.729   1.166
  718WNA     WN 1438   2.753   2.417   5.893
  718WNA     DN 1439   2.916   2.389   5.932
  719WNA     WN 1440   2.538   1.708   4.261
  719WNA     DN 1441   2.466   1.559   4.300
  720WNA     WN 1442   1.883   1.020   3.517
  720WNA     DN 1443   1.969   1.131   3.613
  721WNA     WN 1444   3.937   3.936   2.086
  721WNA     DN 1445   3.778   3.892   2.128
  722WNA     WN 1446   5.706   0.012   4.867
  722WNA     DN 1447   5.800  -0.029   4.731
  723WNA     WN 1448   2.158   3.897   0.460
  723WNA     DN 1449   2.174   4.053   0.526
  724WNA     WN 1450   0.823   2.475   0.785
  724WNA     DN 1451   0.757   2.580   0.902
  725WNA     WN 1452   5.876   6.102   1.389
  725WNA     DN 1453   5.946   6.249   1.437
  726WNA     WN 1454   1.027   2.605   4.175
  726WNA     DN 1455   0.897   2.578   4.068
  727WNA     WN 1456   5.582   5.958   1.821
  727WNA     DN 1457   5.740   5.955   1.883
  728WNA     WN 1458   2.567   5.981   0.877
  728WNA     DN 1459   2.517   6.089   0.999
  729WNA     WN 1460   3.355   4.397   4.898
  729WNA     DN 1461   3.250   4.498   4.810
  730WNA     WN 1462   1.086   4.424   0.899
  730WNA     DN 1463   0.951   4.486   0.981
  731WNA     WN 1464   2.874   4.761   1.786
  731WNA     DN 1465   2.871   4.633   1.897
  732WNA     WN 1466   3.932   3.595   0.544
  732WNA     DN 1467   3.952   3.429   0.516
  733WNA     WN 1468   0.480   2.999   0.273
  733WNA     DN 1469   0.452   3.154   0.337
  734WNA     WN 1470   3.852   4.701   4.070
  734WNA     DN 1471   3.892   4.548   4.008
  735WNA     WN 1472   5.959   4.561   0.806
  735WNA     DN 1473   5.871   4.702   0.840
  736WNA     WN 1474   4.787   6.028   2.072
  736WNA     DN 1475   4.640   5.959   2.122
  737WNA     WN 1476   6.167   4.366   3.066
  737WNA     DN 1477   6.062   4.248   3.003
  738WNA     WN 1478   1.688   4.950   0.899
  738WNA     DN 1479   1.677   4.804   0.813
  739WNA     WN 1480   4.498   4.441   0.705
  739WNA     DN 1481   4.613   4.317   0.690
  740WNA     WN 1482   3.904   1.708   2.486
  740WNA     DN 1483   3.778   1.627   2.567
  741WNA     WN 1484   0.748   2.277   1.639
  741WNA     DN 1485   0.834   2.385   1.540
  742WNA     WN 1486   2.638   2.861   0.541
  742WNA     DN 1487   2.697   2.899   0.386
  743WNA     WN 1488   4.595   6.167   2.537
  743WNA     DN 1489   4.520   6.267   2.652
  744WNA     WN 1490   0.872   0.644   5.847
  744WNA     DN 1491   0.849   0.792   5.767
  745WNA     WN 1492   4.136   0.067   0.864
  745WNA     DN 1493   4.257   0.011   0.758
  746WNA     WN 1494   5.275   1.644   4.393
  746WNA     DN 1495   5.269   1.501   4.484
  747WNA     WN 1496   2.479   2.613   2.879
  747WNA     DN 1497   2.598   2.726   2.835
  748WNA     WN 1498   3.334   1.604   0.064
  748WNA     DN 1499   3.321   1.488  -0.060
  749WNA     WN 1500   0.215   1.083   6.058
  749WNA     DN 1501   0.083   0.989   6.109
  750WNA     WN 1502   1.625   0.764   0.131
  750WNA     DN 1503   1.761   0.756   0.029
  751WNA     WN 1504   1.925   2.821   3.779
  751WNA     DN 1505   2.020   2.933   3.865
  752WNA     WN 1506   2.725   2.393   4.482
  752WNA     DN 1507   2.653   2.365   4.633
  753WNA     WN 1508   1.525   2.678   1.488
  753WNA     DN 1509   1.466   2.785   1.370
  754WNA     WN 1510   5.621   5.648   0.773
  754WNA     DN 1511   5.609   5.674   0.605
  755WNA     WN 1512   2.901   0.669   4.223
  755WNA     DN 1513   2.778   0.724   4.120
  756WNA     WN 1514   4.429   3.216   4.694
  756WNA     DN 1515   4.311   3.329   4.645
  757WNA     WN 1516   5.659   1.752   5.878
  757WNA     DN 1517   5.648   1.682   6.032
  758WNA     WN 1518   5.836   0.005   0.426
  758WNA     DN 1519   5.912   0.085   0.555
  759WNA     WN 1520   3.335   1.870   2.718
  759WNA     DN 1521   3.381   1.920   2.874
  760WNA     WN 1522   0.978   5.378   1.456
  760WNA     DN 1523   1.094   5.270   1.395
  761WNA     WN 1524   1.932   2.477   2.429
  761WNA     DN 1525   1.914   2.346   2.536
  762WNA     WN 1526   5.352   2.539   2.768
  762WNA     DN 1527   5.247   2.420   2.708
  763WNA     WN 1528   0.363   1.908   6.031
  763WNA     DN 1529   0.209   1.980   6.023
  764WNA     WN 1530   0.792   5.704   3.309
  764WNA     DN 1531   0.912   5.649   3.416
  765WNA     WN 1532   3.526   3.686   1.829
  765WNA     DN 1533   3.621   3.705   1.969
  766WNA     WN 1534   2.804   3.932   5.478
  766WNA     DN 1535   2.888   4.074   5.438
  767WNA     WN 1536   2.540   3.342   4.398
  767WNA     DN 1537   2.513   3.354   4.565
  768WNA     WN 1538   4.223   0.428   5.620
  768WNA     DN 1539   4.384   0.483   5.630
  769WNA     WN 1540   0.024   0.872   4.238
  769WNA     DN 1541   0.090   0.824   4.387
  770WNA     WN 1542   2.725   0.951   3.699
  770WNA     DN 1543   2.851   1.046   3.636
  771WNA     WN 1544   0.546   4.488   4.377
  771WNA     DN 1545   0.408   4.455   4.283
  772WNA     WN 1546   6.025   2.928   5.341
  772WNA     DN 1547   5.980   3.045   5.456
  773WNA     WN 1548   5.626   1.766   0.116
  773WNA     DN 1549   5.500   1.827   0.213
  774WNA     WN 1550   2.346   4.038   2.751
  774WNA     DN 1551   2.302   3.923   2.868
  775WNA     WN 1552   2.295   5.446   0.290
  775WNA     DN 1553   2.351   5.547   0.415
  776WNA     WN 1554   4.785   0.725   4.893
  776WNA     DN 1555   4.762   0.557   4.907
  777WNA     WN 1556   2.065   5.407   2.503
  777WNA     DN 1557   2.035   5.381   2.338
  778WNA     WN 1558   3.535   5.179   0.111
  778WNA     DN 1559   3.582   5.022   0.064
  779WNA     WN 1560   5.815   4.093   1.078
  779WNA     DN 1561   5.721   4.183   0.969
  780WNA     WN 1562   3.316   2.464   0.904
  780WNA     DN 1563   3.431   2.474   0.779
  781WNA     WN 1564   0.734   5.389   5.509
  781WNA     DN 1565   0.900   5.418   5.533
  782WNA     WN 1566   0.323   4.880   3.664
  782WNA     DN 1567   0.414   4.846   3.525
  783WNA     WN 1568   4.377   0.223   4.397
  783WNA     DN 1569   4.487   0.299   4.293
  784WNA     WN 1570   1.417   2.144   1.457
  784WNA     DN 1571   1.346   2.024   1.360
  785WNA     WN 1572   5.056   2.711   0.347
  785WNA     DN 1573   4.977   2.835   0.263
  786WNA     WN 1574   4.907   3.785   1.899
  786WNA     DN 1575   4.739   3.788   1.926
  787WNA     WN 1576   0.966   2.399   2.663
  787WNA     DN 1577   1.082   2.281   2.703
  788WNA     WN 1578   5.809   3.048   1.969
  788WNA     DN 1579   5.670   3.123   1.906
  789WNA     WN 1580   5.890   3.375   0.407
  789WNA     DN 1581   5.838   3.455   0.548
  790WNA     WN 1582   4.103   4.016   3.326
  790WNA     DN 1583   3.997   3.890   3.284
  791WNA     WN 1584   0.093   1.554   3.088
  791WNA     DN 1585   0.261   1.554   3.116
  792WNA     WN 1586   5.157   3.239   3.494
  792WNA     DN 1587   5.145   3.112   3.382
  793WNA     WN 1588   2.430   4.583   3.082
  793WNA     DN 1589   2.290   4.575   2.985
  794WNA     WN 1590   3.548   0.876   2.945
  794WNA     DN 1591   3.563   1.001   2.831
  795WNA     WN 1592   4.492   2.216   0.162
  795WNA     DN 1593   4.461   2.383   0.163
  796WNA     WN 1594   3.227   2.011   3.163
  796WNA     DN 1595   3.204   2.168   3.101
  797WNA     WN 1596   1.172   1.256   4.885
  797WNA     DN 1597   1.187   1.419   4.930
  798WNA     WN 1598   1.714   5.601   0.179
  798WNA     DN 1599   1.593   5.570   0.064
  799WNA     WN 1600   5.979   3.909   1.980
  799WNA     DN 1601   5.882   4.032   2.046
  800WNA     WN 1602   5.812   0.579   1.739
  800WNA     DN 1603   5.946   0.680   1.767
  801WNA     WN 1604   2.899   0.588   0.288
  801WNA     DN 1605   2.828   0.458   0.204
  802WNA     WN 1606   5.310   0.840   1.206
  802WNA     DN 1607   5.219   0.815   1.065
  803WNA     WN 1608   0.617   3.313   4.223
  803WNA     DN 1609   0.534   3.408   4.109
  804WNA     WN 1610   3.648   4.944   3.614
  804WNA     DN 1611   3.745   4.937   3.475
  805WNA     WN 1612   4.051   2.701   4.067
  805WNA     DN 1613   3.889   2.730   4.023
  806WNA     WN 1614   5.866   0.881   5.822
  806WNA     DN 1615   5.697   0.883   5.841
  807WNA     WN 1616   3.917   0.718   5.832
  807WNA     DN 1617   3.860   0.614   5.953
  808WNA     WN 1618   4.681   0.230   0.499
  808WNA     DN 1619   4.615   0.082   0.447
  809WNA     WN 1620   5.881   3.966   3.221
  809WNA     DN 1621   5.836   3.826   3.307
  810WNA     WN 1622   3.843   0.510   5.166
  810WNA     DN 1623   3.675   0.529   5.147
  811WNA     WN 1624   1.786   0.185   1.402
  811WNA     DN 1625   1.926   0.256   1.467
  812WNA     WN 1626   5.376   0.380   2.075
  812WNA     DN 1627   5.507   0.475   2.022
  813WNA     WN 1628   2.398   3.666   4.084
  813WNA     DN 1629   2.288   3.642   4.211
  814WNA     WN 1630   5.407   4.484   5.859
  814WNA     DN 1631   5.363   4.415   5.710
  815WNA     WN 1632   0.648   1.636   0.541
  815WNA     DN 1633   0.604   1.567   0.392
  816WNA     WN 1634   3.693   0.736   2.370
  816WNA     DN 1635   3.535   0.754   2.431
  817WNA     WN 1636   5.208   0.985   3.027
  817WNA     DN 1637   5.130   1.021   2.880
  818WNA     WN 1638   5.939   2.279   4.058
  818WNA     DN 1639   5.855   2.184   3.944
  819WNA     WN 1640   3.206   4.006   4.426
  819WNA     DN 1641   3.073   3.906   4.395
  820WNA     WN 1642   4.260   2.821   3.304
  820WNA     DN 1643   4.282   2.720   3.169
  821WNA     WN 1644   0.476   3.701   4.728
  821WNA     DN 1645   0.609   3.683   4.624
  822WNA     WN 1646   0.959   5.831   5.535
  822WNA     DN 1647   1.018   5.719   5.421
  823WNA     WN 1648   1.274   1.720   4.344
  823WNA     DN 1649   1.286   1.596   4.228
  824WNA     WN 1650   0.323   5.266   3.224
  824WNA     DN 1651   0.394   5.305   3.373
  825WNA     WN 1652   1.453   3.503   6.060
  825WNA     DN 1653   1.477   3.394   6.188
  826WNA     WN 1654   1.835   1.830   3.056
  826WNA     DN 1655   1.903   1.703   3.147
  827WNA     WN 1656   4.526   3.781   2.903
  827WNA     DN 1657   4.532   3.951   2.913
  828WNA     WN 1658   4.497   3.987   3.801
  828WNA     DN 1659   4.350   4.058   3.753
  829WNA     WN 1660   2.883   2.267   1.618
  829WNA     DN 1661   2.947   2.375   1.503
  830WNA     WN 1662   0.482   4.126   1.300
  830WNA     DN 1663   0.538   4.227   1.425
  831WNA     WN 1664   3.905   3.034   5.627
  831WNA     DN 1665   3.752   2.963   5.647
  832WNA     WN 1666   3.595   4.367   3.104
  832WNA     DN 1667   3.568   4.346   3.270
  833WNA     WN 1668   2.541   4.136   3.209
  833WNA     DN 1669   2.694   4.146   3.282
  834WNA     WN 1670   6.213   3.749   1.241
  834WNA     DN 1671   6.211   3.836   1.095
  835WNA     WN 1672   4.054   6.014   0.445
  835WNA     DN 1673   4.055   5.954   0.286
  836WNA     WN 1674   2.859   0.234   6.128
  836WNA     DN 1675   2.915   0.080   6.083
  837WNA     WN 1676   0.970   1.979   4.647
  837WNA     DN 1677   0.920   1.817   4.637
  838WNA     WN 1678   5.158   3.722   0.995
  838WNA     DN 1679   5.173   3.602   1.115
  839WNA     WN 1680   4.862   1.294   5.248
  839WNA     DN 1681   4.726   1.246   5.337
  840WNA     WN 1682   4.040   0.930   4.764
  840WNA     DN 1683   4.044   1.012   4.913
  841WNA     WN 1684   5.378   3.245   1.007
  841WNA     DN 1685   5.511   3.282   0.908
  842WNA     WN 1686   6.101   2.182   3.573
  842WNA     DN 1687   6.036   2.049   3.657
  843WNA     WN 1688   4.999   2.313   3.692
  843WNA     DN 1689   5.121   2.312   3.574
  844WNA     WN 1690   4.302   0.739   5.198
  844WNA     DN 1691   4.206   0.604   5.160
  845WNA     WN 1692   2.225   4.288   5.859
  845WNA     DN 1693   2.392   4.300   5.830
  846WNA     WN 1694   5.215   5.095   3.540
  846WNA     DN 1695   5.052   5.082   3.588
  847WNA     WN 1696   2.229   1.260   0.837
  847WNA     DN 1697   2.112   1.245   0.959
  848WNA     WN 1698   5.677   2.427   1.362
  848WNA     DN 1699   5.700   2.590   1.404
  849WNA     WN 1700   5.875   1.537   1.438
  849WNA     DN 1701   5.956   1.519   1.289
  850WNA     WN 1702   3.697   1.965   0.156
  850WNA     DN 1703   3.831   2.046   0.091
  851WNA     WN 1704   5.631   1.060   0.895
  851WNA     DN 1705   5.478   1.018   0.835
  852WNA     WN 1706   0.122   1.534   2.576
  852WNA     DN 1707   0.077   1.635   2.705
  853WNA     WN 1708   2.108   5.854   0.010
  853WNA     DN 1709   1.995   5.855   0.137
  854WNA     WN 1710   3.782   4.613   0.350
  854WNA     DN 1711   3.948   4.576   0.343
  855WNA     WN 1712   1.397   2.377   3.605
  855WNA     DN 1713   1.529   2.462   3.540
  856WNA     WN 1714   3.144   1.145   0.800
  856WNA     DN 1715   3.116   1.095   0.640
  857WNA     WN 1716   2.767   6.194   2.963
  857WNA     DN 1717   2.776   6.217   3.131
  858WNA     WN 1718   2.167   2.324   4.698
  858WNA     DN 1719   2.283   2.422   4.774
  859WNA     WN 1720   4.241   5.784   6.222
  859WNA     DN 1721   4.381   5.881   6.213
  860WNA     WN 1722   5.808   4.281   4.004
  860WNA     DN 1723   5.951   4.299   4.094
  861WNA     WN 1724   0.671   3.717   5.718
  861WNA     DN 1725   0.520   3.770   5.774
  862WNA     WN 1726   5.963   3.245   5.830
  862WNA     DN 1727   5.921   3.203   5.671
  863WNA     WN 1728   2.520   5.493   4.633
  863WNA     DN 1729   2.675   5.542   4.682
  864WNA     WN 1730   2.738   5.262   1.917
  864WNA     DN 1731   2.800   5.386   2.015
  865WNA     WN 1732   5.055   4.328   5.116
  865WNA     DN 1733   5.121   4.394   4.974
  866WNA     WN 1734   5.229   4.576   3.713
  866WNA     DN 1735   5.228   4.521   3.552
  867WNA     WN 1736   4.075   2.800   1.558
  867WNA     DN 1737   4.209   2.900   1.528
  868WNA     WN 1738   1.797   3.023   5.375
  868WNA     DN 1739   1.894   3.131   5.287
  869WNA     WN 1740   1.756   3.918   1.545
  869WNA     DN 1741   1.610   3.995   1.504
  870WNA     WN 1742   3.197   5.157   1.781
  870WNA     DN 1743   3.279   5.008   1.773
  871WNA     WN 1744   2.602   6.048   6.165
  871WNA     DN 1745   2.715   6.065   6.039
  872WNA     WN 1746   1.359   4.682   4.215
  872WNA     DN 1747   1.275   4.595   4.096
  873WNA     WN 1748   4.120   2.439   2.011
  873WNA     DN 1749   4.009   2.535   2.097
  874WNA     WN 1750   5.825   4.180   0.503
  874WNA     DN 1751   5.951   4.067   0.490
  875WNA     WN 1752   3.822   0.474   2.786
  875WNA     DN 1753   3.686   0.372   2.786
  876WNA     WN 1754   3.422   3.895   2.951
  876WNA     DN 1755   3.276   3.890   3.038
  877WNA     WN 1756   4.718   0.668   4.372
  877WNA     DN 1757   4.781   0.684   4.215
  878WNA     WN 1758   4.255   4.373   0.235
  878WNA     DN 1759   4.387   4.471   0.191
  879WNA     WN 1760   2.800   1.321   4.602
  879WNA     DN 1761   2.906   1.352   4.731
  880WNA     WN 1762   5.360   2.554   6.200
  880WNA     DN 1763   5.274   2.651   6.310
  881WNA     WN 1764   2.366   2.819   3.991
  881WNA     DN 1765   2.239   2.706   3.989
  882WNA     WN 1766   2.991   0.451   4.719
  882WNA     DN 1767   2.936   0.603   4.667
  883WNA     WN 1768   0.776   4.518   0.446
  883WNA     DN 1769   0.923   4.462   0.381
  884WNA     WN 1770   3.696   4.279   0.821
  884WNA     DN 1771   3.587   4.149   0.830
  885WNA     WN 1772   3.646   6.017   0.135
  885WNA     DN 1773   3.574   5.936   0.266
  886WNA     WN 1774   4.595   5.707   5.797
  886WNA     DN 1775   4.430   5.747   5.787
  887WNA     WN 1776   4.670   3.334   3.607
  887WNA     DN 1777   4.621   3.497   3.613
  888WNA     WN 1778   1.167   0.092   5.149
  888WNA     DN 1779   1.313   0.129   5.070
  889WNA     WN 1780   3.422   2.011   4.931
  889WNA     DN 1781   3.366   2.115   4.809
  890WNA     WN 1782   1.827   3.709   0.185
  890WNA     DN 1783   1.706   3.590   0.175
  891WNA     WN 1784   3.641   0.853   4.220
  891WNA     DN 1785   3.716   0.813   4.073
  892WNA     WN 1786   4.717   3.949   6.107
  892WNA     DN 1787   4.804   3.958   6.253
  893WNA     WN 1788   3.742   5.565   6.149
  893WNA     DN 1789   3.885   5.486   6.196
  894WNA     WN 1790   2.686   2.295   0.157
  894WNA     DN 1791   2.683   2.144   0.078
  895WNA     WN 1792   3.476   0.742   0.469
  895WNA     DN 1793   3.528   0.890   0.534
  896WNA     WN 1794   4.769   4.661   0.349
  896WNA     DN 1795   4.798   4.738   0.498
  897WNA     WN 1796   0.987   3.010   0.946
  897WNA     DN 1797   0.993   2.856   0.873
  898WNA     WN 1798   3.782   3.223   1.731
  898WNA     DN 1799   3.628   3.238   1.801
  899WNA     WN 1800   1.696   4.712   3.779
  899WNA     DN 1801   1.628   4.867   3.761
  900WNA     WN 1802   3.334   0.696   1.502
  900WNA     DN 1803   3.182   0.685   1.428
  901WNA     WN 1804   3.331   0.054   3.043
  901WNA     DN 1805   3.414  -0.053   2.940
  902WNA     WN 1806   4.500   1.239   1.474
  902WNA     DN 1807   4.476   1.352   1.599
  903WNA     WN 1808   3.261   1.648   3.957
  903WNA     DN 1809   3.145   1.654   4.082
  904WNA     WN 1810   3.116   2.416   6.226
  904WNA     DN 1811   3.084   2.326   6.367
  905WNA     WN 1812   5.861   3.183   2.451
  905WNA     DN 1813   5.750   3.219   2.575
  906WNA     WN 1814   2.934   2.656   3.038
  906WNA     DN 1815   2.954   2.766   3.166
  907WNA     WN 1816   4.364   0.589   4.769
  907WNA     DN 1817   4.210   0.600   4.841
  908WNA     WN 1818   3.992   5.205   3.434
  908WNA     DN 1819   4.143   5.282   3.445
  909WNA     WN 1820   2.124   4.767   4.032
  909WNA     DN 1821   2.143   4.598   4.039
  910WNA     WN 1822   0.043   4.133   0.914
  910WNA     DN 1823   0.107   4.247   1.022
  911WNA     WN 1824   2.971   2.061   4.230
  911WNA     DN 1825   2.891   1.962   4.343
  912WNA     WN 1826   1.955   3.296   3.213
  912WNA     DN 1827   1.997   3.298   3.048
  913WNA     WN 1828   4.109   0.580   2.321
  913WNA     DN 1829   4.184   0.540   2.174
  914WNA     WN 1830   5.101   2.981   2.960
  914WNA     DN 1831   5.194   3.088   3.054
  915WNA     WN 1832   3.501   5.690   1.468
  915WNA     DN 1833   3.589   5.644   1.330
  916WNA     WN 1834   1.890   3.556   4.303
  916WNA     DN 1835   1.827   3.594   4.456
  917WNA     WN 1836   3.821   5.639   5.676
  917WNA     DN 1837   3.675   5.619   5.761
  918WNA     WN 1838   2.737   2.774   2.390
  918WNA     DN 1839   2.693   2.838   2.541
  919WNA     WN 1840   5.451   0.250   0.455
  919WNA     DN 1841   5.482   0.218   0.619
  920WNA     WN 1842   0.163   3.116   1.793
  920WNA     DN 1843   0.022   3.087   1.884
  921WNA     WN 1844   0.129   5.361   1.657
  921WNA     DN 1845  -0.033   5.405   1.630
  922WNA     WN 1846   2.480   5.865   3.506
  922WNA     DN 1847   2.625   5.866   3.417
  923WNA     WN 1848   3.579   2.610   5.650
  923WNA     DN 1849   3.535   2.651   5.491
  924WNA     WN 1850   6.203   5.664   2.670
  924WNA     DN 1851   6.122   5.807   2.628
  925WNA     WN 1852   4.947   2.496   0.821
  925WNA     DN 1853   4.905   2.513   0.657
  926WNA     WN 1854   0.090   0.967   5.635
  926WNA     DN 1855   0.199   1.097   5.645
  927WNA     WN 1856   5.413   4.546   0.585
  927WNA     DN 1857   5.394   4.672   0.698
  928WNA     WN 1858   5.216   5.070   2.478
  928WNA     DN 1859   5.300   5.027   2.337
  929WNA     WN 1860   6.038   6.055   6.128
  929WNA     DN 1861   6.109   6.193   6.060
  930WNA     WN 1862   6.082   0.093   5.600
  930WNA     DN 1863   6.090   0.021   5.446
  931WNA     WN 1864   2.228   1.130   2.050
  931WNA     DN 1865   2.127   0.995   2.074
  932WNA     WN 1866   0.232   3.326   5.672
  932WNA     DN 1867   0.216   3.429   5.806
  933WNA     WN 1868   5.636   5.634   2.849
  933WNA     DN 1869   5.610   5.493   2.757
  934WNA     WN 1870   5.903   1.896   2.488
  934WNA     DN 1871   5.828   1.759   2.421
  935WNA     WN 1872   4.632   1.415   5.713
  935WNA     DN 1873   4.475   1.351   5.700
  936WNA     WN 1874   3.339   4.773   3.214
  936WNA     DN 1875   3.489   4.828   3.272
  937WNA     WN 1876   4.993   4.556   0.789
  937WNA     DN 1877   4.867   4.475   0.870
  938WNA     WN 1878   0.946   0.332   1.846
  938WNA     DN 1879   1.087   0.236   1.848
  939WNA     WN 1880   2.531   4.024   0.771
  939WNA     DN 1881   2.584   4.179   0.815
  940WNA     WN 1882   4.216   4.764   4.821
  940WNA     DN 1883   4.122   4.805   4.957
  941WNA     WN 1884   2.930   5.743   2.165
  941WNA     DN 1885   3.068   5.779   2.258
  942WNA     WN 1886   1.309   6.037   1.067
  942WNA     DN 1887   1.174   6.137   1.041
  943WNA     WN 1888   5.304   5.049   5.049
  943WNA     DN 1889   5.401   4.992   4.922
  944WNA     WN 1890   5.850   6.018   3.181
  944WNA     DN 1891   5.765   6.017   3.328
  945WNA     WN 1892   0.438   3.082   2.949
  945WNA     DN 1893   0.482   3.214   2.851
  946WNA     WN 1894   0.952   4.417   1.354
  946WNA     DN 1895   1.104   4.354   1.395
  947WNA     WN 1896   4.345   4.841   0.318
  947WNA     DN 1897   4.469   4.851   0.434
  948WNA     WN 1898   4.002   3.492   4.685
  948WNA     DN 1899   3.965   3.329   4.718
  949WNA     WN 1900   2.528   3.735   2.324
  949WNA     DN 1901   2.625   3.728   2.185
  950WNA     WN 1902   0.891   1.684   1.448
  950WNA     DN 1903   0.733   1.745   1.465
  951WNA     WN 1904   0.341   0.599   0.117
  951WNA     DN 1905   0.358   0.740   0.211
  952WNA     WN 1906   5.939   0.499   0.544
  952WNA     DN 1907   5.956   0.667   0.560
  953WNA     WN 1908   2.716   5.290   3.750
  953WNA     DN 1909   2.585   5.331   3.649
  954WNA     WN 1910   1.655   0.926   2.028
  954WNA     DN 1911   1.822   0.909   2.053
  955WNA     WN 1912   3.867   1.324   4.987
  955WNA     DN 1913   3.748   1.415   5.067
  956WNA     WN 1914   0.336   5.909   1.716
  956WNA     DN 1915   0.481   5.851   1.783
  957WNA     WN 1916   1.056   1.890   0.789
  957WNA     DN 1917   1.016   1.845   0.948
  958WNA     WN 1918   0.492   5.881   0.177
  958WNA     DN 1919   0.571   5.769   0.077
  959WNA     WN 1920   6.182   5.485   4.940
  959WNA     DN 1921   6.061   5.367   4.918
  960WNA     WN 1922   3.593   1.122   0.789
  960WNA     DN 1923   3.712   1.107   0.668
  961WNA     WN 1924   5.991   4.022   5.433
  961WNA     DN 1925   6.109   3.970   5.323
  962WNA     WN 1926   4.107   1.034   3.855
  962WNA     DN 1927   4.200   1.001   3.717
  963WNA     WN 1928   3.946   6.229   5.835
  963WNA     DN 1929   3.794   6.166   5.879
  964WNA     WN 1930   2.305   5.077   1.862
  964WNA     DN 1931   2.224   5.101   1.715
  965WNA     WN 1932   0.847   4.575   5.715
  965WNA     DN 1933   0.718   4.546   5.608
  966WNA     WN 1934   0.757   4.334   2.476
  966WNA     DN 1935   0.663   4.472   2.443
  967WNA     WN 1936   5.134   3.372   2.182
  967WNA     DN 1937   5.155   3.541   2.187
  968WNA     WN 1938   0.502   4.200   5.823
  968WNA     DN 1939   0.423   4.187   5.973
  969WNA     WN 1940   5.171   0.164   3.615
  969WNA     DN 1941   5.131   0.223   3.769
  970WNA     WN 1942   4.436   3.147   0.750
  970WNA     DN 1943   4.424   2.978   0.766
  971WNA     WN 1944   3.038   3.230   6.003
  971WNA     DN 1945   3.003   3.266   6.165
  972WNA     WN 1946   1.398   1.735   5.815
  972WNA     DN 1947   1.549   1.676   5.865
  973WNA     WN 1948   3.883   5.331   4.068
  973WNA     DN 1949   3.719   5.329   4.023
  974WNA     WN 1950   4.305   5.435   0.504
  974WNA     DN 1951   4.273   5.579   0.420
  975WNA     WN 1952   4.150   0.437   3.524
  975WNA     DN 1953   4.017   0.393   3.621
  976WNA     WN 1954   5.901   1.846   4.990
  976WNA     DN 1955   6.037   1.746   5.010
  977WNA     WN 1956   0.871   0.839   1.773
  977WNA     DN 1957   0.794   0.691   1.740
  978WNA     WN 1958   0.149   4.606   4.762
  978WNA     DN 1959   0.027   4.488   4.763
  979WNA     WN 1960   1.119   0.064   2.222
  979WNA     DN 1961   1.285   0.028   2.228
  980WNA     WN 1962   0.411   4.540   1.753
  980WNA     DN 1963   0.404   4.466   1.600
  981WNA     WN 1964   0.206   0.064   0.776
  981WNA     DN 1965   0.148   0.070   0.936
  982WNA     WN 1966   4.749   5.968   3.823
  982WNA     DN 1967   4.738   6.122   3.753
  983WNA     WN 1968   4.792   0.474   0.003
  983WNA     DN 1969   4.772   0.565   0.145
  984WNA     WN 1970   5.420   3.453   1.634
  984WNA     DN 1971   5.356   3.354   1.512
  985WNA     WN 1972   3.343   3.040   1.633
  985WNA     DN 1973   3.376   3.197   1.577
  986WNA     WN 1974   0.149   4.982   6.190
  986WNA     DN 1975   0.077   5.132   6.226
  987WNA     WN 1976   0.289   5.988   5.022
  987WNA     DN 1977   0.255   6.131   4.936
  988WNA     WN 1978   4.585   1.722   5.232
  988WNA     DN 1979   4.434   1.691   5.303
  989WNA     WN 1980   4.985   0.939   3.484
  989WNA     DN 1981   4.823   0.959   3.532
  990WNA     WN 1982   2.512   4.666   0.844
  990WNA     DN 1983   2.381   4.746   0.770
  991WNA     WN 1984   4.546   3.750   3.384
  991WNA     DN 1985   4.653   3.700   3.507
  992WNA     WN 1986   5.421   3.686   3.997
  992WNA     DN 1987   5.418   3.558   4.108
  993WNA     WN 1988   2.227   1.314   0.140
  993WNA     DN 1989   2.305   1.338  -0.009
  994WNA     WN 1990   4.469   0.627   0.868
  994WNA     DN 1991   4.572   0.584   0.996
  995WNA     WN 1992   4.228   0.023   3.890
  995WNA     DN 1993   4.319  -0.011   3.751
  996WNA     WN 1994   4.338   1.656   4.783
  996WNA     DN 1995   4.338   1.660   4.613
  997WNA     WN 1996   1.363   1.819   3.545
  997WNA     DN 1997   1.456   1.945   3.611
  998WNA     WN 1998   1.632   1.415   3.244
  998WNA     DN 1999   1.588   1.251   3.241
  999WNA     WN 2000   4.118   1.634   4.235
  999WNA     DN 2001   4.226   1.573   4.119
 1000WNA     WN 2002   4.156   4.169   2.862
 1000WNA     DN 2003   3.998   4.215   2.905
 1001WNA     WN 2004   4.922   3.590   4.762
 1001WNA     DN 2005   4.927   3.585   4.932
 1002WNA     WN 2006   0.050   4.397   4.198
 1002WNA     DN 2007  -0.093   4.489   4.205
 1003WNA     WN 2008   4.862   4.109   4.655
 1003WNA     DN 2009   4.938   4.189   4.784
 1004WNA     WN 2010   3.689   3.238   3.201
 1004WNA     DN 2011   3.751   3.353   3.092
 1005WNA     WN 2012   2.591   5.157   2.785
 1005WNA     DN 2013   2.546   5.006   2.849
 1006WNA     WN 2014   4.925   0.725   1.914
 1006WNA     DN 2015   5.062   0.791   1.839
 1007WNA     WN 2016   3.101   2.965   3.416
 1007WNA     DN 2017   3.049   2.849   3.529
 1008WNA     WN 2018   1.989   2.827   2.886
 1008WNA     DN 2019   2.027   2.898   3.036
 1009WNA     WN 2020   0.654   0.907   6.165
 1009WNA     DN 2021   0.485   0.893   6.171
 1010WNA     WN 2022   3.911   0.627   0.948
 1010WNA     DN 2023   3.760   0.578   1.009
 1011WNA     WN 2024   2.458   1.374   4.954
 1011WNA     DN 2025   2.533   1.266   4.846
 1012WNA     WN 2026   4.538   1.665   1.047
 1012WNA     DN 2027   4.582   1.569   0.914
 1013WNA     WN 2028   3.113   4.792   4.981
 1013WNA     DN 2029   3.162   4.949   5.023
 1014WNA     WN 2030   0.877   5.950   4.241
 1014WNA     DN 2031   1.044   5.940   4.210
 1015WNA     WN 2032   0.914   0.539   5.326
 1015WNA     DN 2033   1.018   0.436   5.413
 1016WNA     WN 2034   0.922   2.480   4.791
 1016WNA     DN 2035   0.783   2.541   4.867
 1017WNA     WN 2036   0.248   5.147   0.664
 1017WNA     DN 2037   0.416   5.143   0.640
 1018WNA     WN 2038   0.413   0.700   5.276
 1018WNA     DN 2039   0.300   0.613   5.369
 1019WNA     WN 2040   3.378   4.322   0.421
 1019WNA     DN 2041   3.380   4.486   0.467
 1020WNA     WN 2042   0.945   3.530   6.129
 1020WNA     DN 2043   1.050   3.654   6.180
 1021WNA     WN 2044   0.888   1.206   4.096
 1021WNA     DN 2045   1.033   1.207   4.007
 1022WNA     WN 2046   0.833   5.081   0.512
 1022WNA     DN 2047   0.773   4.939   0.441
 1023WNA     WN 2048   0.263   0.407   4.289
 1023WNA     DN 2049   0.318   0.545   4.371
 1024WNA     WN 2050   4.181   3.817   1.054
 1024WNA     DN 2051   4.123   3.776   0.900
 1025WNA     WN 2052   2.473   0.907   1.667
 1025WNA     DN 2053   2.404   1.021   1.772
 1026WNA     WN 2054   0.838   6.132   1.819
 1026WNA     DN 2055   0.689   6.213   1.829
 1027WNA     WN 2056   0.366   4.115   3.087
 1027WNA     DN 2057   0.486   4.060   3.194
 1028WNA     WN 2058   4.197   3.376   4.225
 1028WNA     DN 2059   4.252   3.243   4.135
 1029WNA     WN 2060   5.677   2.897   0.092
 1029WNA     DN 2061   5.763   2.750   0.088
 1030WNA     WN 2062   5.420   1.717   2.404
 1030WNA     DN 2063   5.308   1.589   2.412
 1031WNA     WN 2064   2.624   0.214   5.713
 1031WNA     DN 2065   2.534   0.356   5.737
 1032WNA     WN 2066   3.865   0.988   5.348
 1032WNA     DN 2067   3.757   1.119   5.340
 1033WNA     WN 2068   4.944   5.434   2.735
 1033WNA     DN 2069   5.032   5.479   2.596
 1034WNA     WN 2070   5.031   1.993   3.284
 1034WNA     DN 2071   5.049   2.018   3.451
 1035WNA     WN 2072   3.401   4.926   4.564
 1035WNA     DN 2073   3.507   5.056   4.592
 1036WNA     WN 2074   1.891   5.105   3.509
 1036WNA     DN 2075   2.027   5.005   3.529
 1037WNA     WN 2076   0.684   2.769   5.452
 1037WNA     DN 2077   0.630   2.845   5.594
 1038WNA     WN 2078   5.005   4.280   4.213
 1038WNA     DN 2079   4.846   4.332   4.185
 1039WNA     WN 2080   0.168   3.315   0.940
 1039WNA     DN 2081   0.310   3.408   0.930
 1040WNA     WN 2082   4.797   4.816   3.876
 1040WNA     DN 2083   4.943   4.903   3.866
 1041WNA     WN 2084   0.844   6.193   3.678
 1041WNA     DN 2085   0.943   6.146   3.808
 1042WNA     WN 2086   5.416   2.284   0.892
 1042WNA     DN 2087   5.498   2.211   1.022
 1043WNA     WN 2088   1.873   2.407   1.600
 1043WNA     DN 2089   1.713   2.466   1.600
 1044WNA     WN 2090   1.804   1.745   5.418
 1044WNA     DN 2091   1.902   1.633   5.500
 1045WNA     WN 2092   1.407   4.240   1.250
 1045WNA     DN 2093   1.571   4.199   1.228
 1046WNA     WN 2094   1.096   0.679   0.740
 1046WNA     DN 2095   0.991   0.812   0.730
 1047WNA     WN 2096   3.883   3.266   0.949
 1047WNA     DN 2097   3.787   3.328   1.075
 1048WNA     WN 2098   0.192   5.547   4.282
 1048WNA     DN 2099   0.121   5.409   4.350
 1049WNA     WN 2100   5.136   4.059   5.680
 1049WNA     DN 2101   5.140   3.946   5.553
 1050WNA     WN 2102   4.187   1.883   0.398
 1050WNA     DN 2103   4.342   1.923   0.341
 1051WNA     WN 2104   0.942   6.115   0.169
 1051WNA     DN 2105   0.901   6.168   0.013
 1052WNA     WN 2106   1.033   4.494   2.917
 1052WNA     DN 2107   0.948   4.488   2.770
 1053WNA     WN 2108   2.815   4.791   0.287
 1053WNA     DN 2109   2.655   4.780   0.345
 1054WNA     WN 2110   5.483   0.634   2.684
 1054WNA     DN 2111   5.317   0.667   2.697
 1055WNA     WN 2112   4.166   0.870   1.880
 1055WNA     DN 2113   4.235   0.969   2.000
 1056WNA     WN 2114   2.647   4.393   5.651
 1056WNA     DN 2115   2.487   4.369   5.702
 1057WNA     WN 2116   1.188   5.750   6.060
 1057WNA     DN 2117   1.139   5.601   5.994
 1058WNA     WN 2118   5.350   3.433   4.357
 1058WNA     DN 2119   5.258   3.349   4.472
 1059WNA     WN 2120   1.308   0.032   4.371
 1059WNA     DN 2121   1.391  -0.085   4.462
 1060WNA     WN 2122   5.745   6.139   4.317
 1060WNA     DN 2123   5.816   6.044   4.195
 1061WNA     WN 2124   3.396   0.177   4.636
 1061WNA     DN 2125   3.229   0.147   4.648
 1062WNA     WN 2126   3.306   5.689   5.493
 1062WNA     DN 2127   3.223   5.797   5.595
 1063WNA     WN 2128   3.487   4.952   0.555
 1063WNA     DN 2129   3.330   4.888   0.542
 1064WNA     WN 2130   2.232   2.354   4.205
 1064WNA     DN 2131   2.359   2.250   4.162
 1065WNA     WN 2132   0.984   0.715   4.877
 1065WNA     DN 2133   0.948   0.737   5.042
 1066WNA     WN 2134   1.111   2.544   5.293
 1066WNA     DN 2135   1.242   2.445   5.336
 1067WNA     WN 2136   3.377   2.066   1.219
 1067WNA     DN 2137   3.415   2.045   1.055
 1068WNA     WN 2138   4.190   3.551   3.666
 1068WNA     DN 2139   4.064   3.440   3.694
 1069WNA     WN 2140   3.469   2.933   0.817
 1069WNA     DN 2141   3.422   2.837   0.685
 1070WNA     WN 2142   0.466   0.673   1.524
 1070WNA     DN 2143   0.579   0.553   1.481
 1071WNA     WN 2144   5.936   1.868   0.493
 1071WNA     DN 2145   5.886   1.706   0.492
 1072WNA     WN 2146   2.646   2.707   3.535
 1072WNA     DN 2147   2.565   2.841   3.468
 1073WNA     WN 2148   0.575   5.269   4.161
 1073WNA     DN 2149   0.685   5.139   4.170
 1074WNA     WN 2150   2.226   1.534   1.790
 1074WNA     DN 2151   2.291   1.397   1.868
 1075WNA     WN 2152   0.481   2.523   1.101
 1075WNA     DN 2153   0.617   2.426   1.133
 1076WNA     WN 2154   5.711   5.913   5.757
 1076WNA     DN 2155   5.655   6.074   5.753
 1077WNA     WN 2156   3.450   3.377   0.689
 1077WNA     DN 2157   3.503   3.532   0.733
 1078WNA     WN 2158   4.180   5.498   2.949
 1078WNA     DN 2159   4.236   5.348   3.006
 1079WNA     WN 2160   3.317   1.631   0.597
 1079WNA     DN 2161   3.287   1.538   0.458
 1080WNA     WN 2162   3.686   2.955   1.289
 1080WNA     DN 2163   3.564   2.839   1.311
 1081WNA     WN 2164   4.021   2.937   6.147
 1081WNA     DN 2165   4.152   3.030   6.092
 1082WNA     WN 2166   0.009   0.576   1.968
 1082WNA     DN 2167   0.120   0.461   2.026
 1083WNA     WN 2168   4.798   5.857   6.214
 1083WNA     DN 2169   4.916   5.783   6.311
 1084WNA     WN 2170   5.602   0.120   6.218
 1084WNA     DN 2171   5.511   0.170   6.084
 1085WNA     WN 2172   2.108   2.922   1.680
 1085WNA     DN 2173   2.116   3.011   1.825
 1086WNA     WN 2174   4.218   4.272   5.321
 1086WNA     DN 2175   4.298   4.135   5.259
 1087WNA     WN 2176   5.401   0.837   4.003
 1087WNA     DN 2177   5.359   0.930   4.139
 1088WNA     WN 2178   0.848   2.883   4.574
 1088WNA     DN 2179   0.930   2.734   4.566
 1089WNA     WN 2180   1.717   4.604   3.148
 1089WNA     DN 2181   1.678   4.474   3.046
 1090WNA     WN 2182   1.198   3.561   0.956
 1090WNA     DN 2183   1.202   3.581   0.787
 1091WNA     WN 2184   3.431   2.870   3.776
 1091WNA     DN 2185   3.550   2.991   3.761
 1092WNA     WN 2186   1.630   0.005   4.728
 1092WNA     DN 2187   1.473  -0.027   4.784
 1093WNA     WN 2188   3.308   0.431   5.201
 1093WNA     DN 2189   3.403   0.297   5.158
 1094WNA     WN 2190   5.505   0.131   1.540
 1094WNA     DN 2191   5.582   0.051   1.411
 1095WNA     WN 2192   1.267   3.704   0.264
 1095WNA     DN 2193   1.171   3.816   0.349
 1096WNA     WN 2194   5.861   4.783   3.089
 1096WNA     DN 2195   5.785   4.781   2.937
 1097WNA     WN 2196   5.651   2.954   2.840
 1097WNA     DN 2197   5.596   3.074   2.947
 1098WNA     WN 2198   2.332   3.240   2.838
 1098WNA     DN 2199   2.465   3.277   2.739
 1099WNA     WN 2200   3.232   2.688   2.097
 1099WNA     DN 2201   3.122   2.570   2.150
 1100WNA     WN 2202   0.099   2.555   3.782
 1100WNA     DN 2203   0.075   2.565   3.950
 1101WNA     WN 2204   2.443   0.171   1.975
 1101WNA     DN 2205   2.390   0.010   1.988
 1102WNA     WN 2206   1.399   0.593   5.158
 1102WNA     DN 2207   1.487   0.716   5.081
 1103WNA     WN 2208   1.357   3.240   4.639
 1103WNA     DN 2209   1.335   3.402   4.591
 1104WNA     WN 2210   4.759   4.100   2.335
 1104WNA     DN 2211   4.874   4.144   2.452
 1105WNA     WN 2212   3.664   6.199   2.652
 1105WNA     DN 2213   3.724   6.085   2.763
 1106WNA     WN 2214   3.542   1.560   1.113
 1106WNA     DN 2215   3.578   1.670   1.238
 1107WNA     WN 2216   3.898   5.352   2.508
 1107WNA     DN 2217   4.067   5.363   2.520
 1108WNA     WN 2218   5.743   3.455   3.413
 1108WNA     DN 2219   5.634   3.548   3.504
 1109WNA     WN 2220   5.644   2.725   0.978
 1109WNA     DN 2221   5.688   2.593   1.075
 1110WNA     WN 2222   5.172   4.503   0.076
 1110WNA     DN 2223   5.340   4.511   0.053
 1111WNA     WN 2224   2.357   3.668   3.213
 1111WNA     DN 2225   2.210   3.713   3.141
 1112WNA     WN 2226   0.359   1.202   4.350
 1112WNA     DN 2227   0.249   1.331   4.361
 1113WNA     WN 2228   0.650   2.347   5.150
 1113WNA     DN 2229   0.630   2.515   5.132
 1114WNA     WN 2230   1.120   0.656   4.386
 1114WNA     DN 2231   1.085   0.749   4.524
 1115WNA     WN 2232   6.155   2.233   1.305
 1115WNA     DN 2233   6.199   2.397   1.296
 1116WNA     WN 2234   0.384   5.563   5.230
 1116WNA     DN 2235   0.552   5.548   5.248
 1117WNA     WN 2236   0.316   0.152   5.471
 1117WNA     DN 2237   0.466   0.102   5.534
 1118WNA     WN 2238   2.417   1.058   2.630
 1118WNA     DN 2239   2.321   0.961   2.529
 1119WNA     WN 2240   0.165   1.088   4.892
 1119WNA     DN 2241   0.082   1.196   4.994
 1120WNA     WN 2242   0.880   4.727   4.128
 1120WNA     DN 2243   0.842   4.863   4.223
 1121WNA     WN 2244   3.078   5.676   1.124
 1121WNA     DN 2245   3.147   5.799   1.030
 1122WNA     WN 2246   2.918   1.269   2.600
 1122WNA     DN 2247   2.911   1.419   2.680
 1123WNA     WN 2248   1.148   4.411   6.067
 1123WNA     DN 2249   1.112   4.570   6.114
 1124WNA     WN 2250   0.335   1.524   5.847
 1124WNA     DN 2251   0.365   1.663   5.940
 1125WNA     WN 2252   5.087   3.207   0.195
 1125WNA     DN 2253   4.923   3.183   0.233
 1126WNA     WN 2254   3.071   6.015   0.042
 1126WNA     DN 2255   3.203   6.113  -0.002
 1127WNA     WN 2256   1.059   5.374   5.026
 1127WNA     DN 2257   1.125   5.250   5.122
 1128WNA     WN 2258   2.860   3.931   1.311
 1128WNA     DN 2259   2.844   4.099   1.333
 1129WNA     WN 2260   5.136   1.035   0.743
 1129WNA     DN 2261   5.102   1.074   0.905
 1130WNA     WN 2262   0.567   0.606   2.050
 1130WNA     DN 2263   0.686   0.592   1.929
 1131WNA     WN 2264   5.497   3.889   2.922
 1131WNA     DN 2265   5.585   3.881   3.067
 1132WNA     WN 2266   5.915   1.230   2.285
 1132WNA     DN 2267   5.819   1.112   2.362
 1133WNA     WN 2268   3.871   1.766   2.964
 1133WNA     DN 2269   3.701   1.775   2.957
 1134WNA     WN 2270   1.801   1.289   1.738
 1134WNA     DN 2271   1.646   1.326   1.798
 1135WNA     WN 2272   1.717   2.483   5.416
 1135WNA     DN 2273   1.721   2.492   5.586
 1136WNA     WN 2274   6.040   2.380   5.493
 1136WNA     DN 2275   6.050   2.474   5.352
 1137WNA     WN 2276   0.857   1.870   5.865
 1137WNA     DN 2277   0.895   1.799   6.015
 1138WNA     WN 2278   0.639   6.104   5.991
 1138WNA     DN 2279   0.700   5.959   5.926
 1139WNA     WN 2280   6.103   2.327   0.600
 1139WNA     DN 2281   6.120   2.165   0.550
 1140WNA     WN 2282   5.062   1.732   5.155
 1140WNA     DN 2283   5.136   1.713   5.307
 1141WNA     WN 2284   5.411   1.620   4.868
 1141WNA     DN 2285   5.352   1.612   5.027
 1142WNA     WN 2286   4.979   2.056   1.497
 1142WNA     DN 2287   5.016   2.135   1.351
 1143WNA     WN 2288   5.618   4.855   3.717
 1143WNA     DN 2289   5.702   4.707   3.712
 1144WNA     WN 2290   5.789   3.235   5.001
 1144WNA     DN 2291   5.784   3.371   4.899
 1145WNA     WN 2292   0.067   5.146   1.113
 1145WNA     DN 2293   0.021   4.984   1.090
 1146WNA     WN 2294   3.257   1.327   4.359
 1146WNA     DN 2295   3.425   1.300   4.357
 1147WNA     WN 2296   5.264   0.430   6.067
 1147WNA     DN 2297   5.377   0.466   6.188
 1148WNA     WN 2298   5.338   2.258   2.324
 1148WNA     DN 2299   5.487   2.179   2.345
 1149WNA     WN 2300   1.247   0.319   4.720
 1149WNA     DN 2301   1.105   0.231   4.751
 1150WNA     WN 2302   0.846   4.850   0.943
 1150WNA     DN 2303   0.889   4.994   1.022
 1151WNA     WN 2304   0.625   5.524   5.943
 1151WNA     DN 2305   0.762   5.599   6.010
 1152WNA     WN 2306   2.601   0.713   4.625
 1152WNA     DN 2307   2.604   0.874   4.680
 1153WNA     WN 2308   0.234   0.213   3.807
 1153WNA     DN 2309   0.223   0.155   3.966
 1154WNA     WN 2310   3.719   2.796   1.877
 1154WNA     DN 2311   3.577   2.822   1.787
 1155WNA     WN 2312   5.889   3.791   2.508
 1155WNA     DN 2313   5.871   3.896   2.375
 1156WNA     WN 2314   0.606   0.790   4.247
 1156WNA     DN 2315   0.447   0.829   4.292
 1157WNA     WN 2316   2.039   5.431   4.736
 1157WNA     DN 2317   1.919   5.389   4.849
 1158WNA     WN 2318   4.474   1.469   6.198
 1158WNA     DN 2319   4.448   1.486   6.031
 1159WNA     WN 2320   5.500   1.799   3.364
 1159WNA     DN 2321   5.619   1.912   3.320
 1160WNA     WN 2322   5.820   5.065   0.666
 1160WNA     DN 2323   5.762   5.192   0.568
 1161WNA     WN 2324   5.487   3.478   2.578
 1161WNA     DN 2325   5.428   3.354   2.477
 1162WNA     WN 2326   4.571   4.247   3.243
 1162WNA     DN 2327   4.633   4.224   3.087
 1163WNA     WN 2328   6.179   3.909   2.844
 1163WNA     DN 2329   6.295   3.923   2.967
 1164WNA     WN 2330   2.974   0.206   2.181
 1164WNA     DN 2331   3.034   0.334   2.276
 1165WNA     WN 2332   1.024   2.997   5.070
 1165WNA     DN 2333   1.147   2.969   4.956
 1166WNA     WN 2334   5.417   4.016   2.401
 1166WNA     DN 2335   5.423   3.945   2.555
 1167WNA     WN 2336   5.354   1.806   1.813
 1167WNA     DN 2337   5.191   1.836   1.774
 1168WNA     WN 2338   2.253   2.826   2.448
 1168WNA     DN 2339   2.268   2.953   2.560
 1169WNA     WN 2340   1.429   1.738   1.113
 1169WNA     DN 2341   1.546   1.738   1.237
 1170WNA     WN 2342   5.463   5.821   4.770
 1170WNA     DN 2343   5.550   5.677   4.745
 1171WNA     WN 2344   3.517   3.927   5.102
 1171WNA     DN 2345   3.676   3.894   5.052
 1172WNA     WN 2346   0.559   3.900   2.166
 1172WNA     DN 2347   0.675   3.782   2.205
 1173WNA     WN 2348   1.615   2.748   3.346
 1173WNA     DN 2349   1.624   2.870   3.464
 1174WNA     WN 2350   3.066   1.776   5.194
 1174WNA     DN 2351   3.145   1.811   5.047
 1175WNA     WN 2352   1.450   1.588   2.761
 1175WNA     DN 2353   1.333   1.602   2.639
 1176WNA     WN 2354   1.885   2.837   5.842
 1176WNA     DN 2355   2.024   2.775   5.917
 1177WNA     WN 2356   0.426   1.564   1.407
 1177WNA     DN 2357   0.490   1.678   1.515
 1178WNA     WN 2358   2.370   0.989   3.325
 1178WNA     DN 2359   2.352   0.824   3.361
 1179WNA     WN 2360   2.993   4.234   0.109
 1179WNA     DN 2361   2.866   4.228   0.222
 1180WNA     WN 2362   2.681   2.416   3.972
 1180WNA     DN 2363   2.619   2.304   3.860
 1181WNA     WN 2364   2.489   0.361   4.279
 1181WNA     DN 2365   2.538   0.357   4.116
 1182WNA     WN 2366   3.874   1.237   2.378
 1182WNA     DN 2367   3.800   1.220   2.530
 1183WNA     WN 2368   4.073   4.242   4.066
 1183WNA     DN 2369   4.223   4.297   4.124
 1184WNA     WN 2370   1.397   4.016   0.855
 1184WNA     DN 2371   1.513   4.107   0.939
 1185WNA     WN 2372   3.274   2.214   0.375
 1185WNA     DN 2373   3.371   2.078   0.342
 1186WNA     WN 2374   3.144   5.242   3.009
 1186WNA     DN 2375   3.269   5.354   3.038
 1187WNA     WN 2376   6.167   0.295   2.409
 1187WNA     DN 2377   6.122   0.361   2.259
 1188WNA     WN 2378   0.528   5.734   2.903
 1188WNA     DN 2379   0.671   5.817   2.945
 1189WNA     WN 2380   3.819   3.794   3.950
 1189WNA     DN 2381   3.890   3.710   4.080
 1190WNA     WN 2382   4.762   4.741   4.336
 1190WNA     DN 2383   4.879   4.849   4.275
 1191WNA     WN 2384   0.123   0.809   2.399
 1191WNA     DN 2385   0.126   0.947   2.498
 1192WNA     WN 2386   3.470   5.197   5.846
 1192WNA     DN 2387   3.343   5.199   5.733
 1193WNA     WN 2388   1.250   4.481   3.437
 1193WNA     DN 2389   1.248   4.403   3.286
 1194WNA     WN 2390   0.173   2.861   5.657
 1194WNA     DN 2391   0.251   2.751   5.761
 1195WNA     WN 2392   2.477   2.620   1.601
 1195WNA     DN 2393   2.508   2.688   1.448
 1196WNA     WN 2394   3.516   4.684   5.282
 1196WNA     DN 2395   3.471   4.533   5.346
 1197WNA     WN 2396   1.234   2.735   0.555
 1197WNA     DN 2397   1.342   2.674   0.439
 1198WNA     WN 2398   5.509   2.989   1.480
 1198WNA     DN 2399   5.579   3.119   1.564
 1199WNA     WN 2400   4.631   3.554   0.983
 1199WNA     DN 2401   4.470   3.530   1.032
 1200WNA     WN 2402   1.343   4.575   5.534
 1200WNA     DN 2403   1.293   4.460   5.649
 1201WNA     WN 2404   0.283   4.359   2.655
 1201WNA     DN 2405   0.440   4.301   2.683
 1202WNA     WN 2406   4.129   2.345   3.119
 1202WNA     DN 2407   4.171   2.181   3.135
 1203WNA     WN 2408   0.983   4.807   0.054
 1203WNA     DN 2409   0.838   4.885   0.011
 1204WNA     WN 2410   1.960   5.358   1.660
 1204WNA     DN 2411   2.033   5.209   1.698
 1205WNA     WN 2412   3.095   6.016   2.540
 1205WNA     DN 2413   3.040   6.021   2.379
 1206WNA     WN 2414   5.190   0.722   4.444
 1206WNA     DN 2415   5.096   0.848   4.508
 1207WNA     WN 2416   0.826   3.152   5.783
 1207WNA     DN 2417   0.657   3.165   5.788
 1208WNA     WN 2418   2.693   1.082   2.138
 1208WNA     DN 2419   2.651   1.175   2.274
 1209WNA     WN 2420   3.491   4.721   5.740
 1209WNA     DN 2421   3.582   4.820   5.844
 1210WNA     WN 2422   5.537   4.783   4.671
 1210WNA     DN 2423   5.397   4.867   4.717
 1211WNA     WN 2424   0.154   1.061   2.803
 1211WNA     DN 2425   0.287   0.955   2.804
 1212WNA     WN 2426   4.199   0.585   0.423
 1212WNA     DN 2427   4.235   0.432   0.488
 1213WNA     WN 2428   0.499   6.092   2.241
 1213WNA     DN 2429   0.481   6.132   2.405
 1214WNA     WN 2430   2.091   1.750   0.966
 1214WNA     DN 2431   1.961   1.829   0.890
 1215WNA     WN 2432   5.375   2.829   2.007
 1215WNA     DN 2433   5.535   2.850   1.953
 1216WNA     WN 2434   0.188   2.639   5.278
 1216WNA     DN 2435   0.075   2.519   5.238
 1217WNA     WN 2436   5.415   5.012   1.508
 1217WNA     DN 2437   5.492   4.970   1.654
 1218WNA     WN 2438   2.871   0.748   5.418
 1218WNA     DN 2439   2.843   0.693   5.260
 1219WNA     WN 2440   5.837   1.942   1.032
 1219WNA     DN 2441   6.000   1.912   0.995
 1220WNA     WN 2442   5.228   4.621   5.433
 1220WNA     DN 2443   5.225   4.462   5.494
 1221WNA     WN 2444   5.431   1.279   2.640
 1221WNA     DN 2445   5.585   1.301   2.708
 1222WNA     WN 2446   2.421   0.990   5.232
 1222WNA     DN 2447   2.507   0.903   5.350
 1223WNA     WN 2448   5.596   4.283   5.364
 1223WNA     DN 2449   5.510   4.413   5.295
 1224WNA     WN 2450   2.408   0.428   5.149
 1224WNA     DN 2451   2.415   0.425   4.979
 1225WNA     WN 2452   0.051   3.352   4.752
 1225WNA     DN 2453   0.007   3.447   4.618
 1226WNA     WN 2454   3.065   5.562   1.597
 1226WNA     DN 2455   2.964   5.570   1.460
 1227WNA     WN 2456   2.572   3.137   4.952
 1227WNA     DN 2457   2.432   3.059   5.008
 1228WNA     WN 2458   4.973   2.961   1.023
 1228WNA     DN 2459   4.921   3.039   1.165
 1229WNA     WN 2460   0.224   2.146   0.893
 1229WNA     DN 2461   0.344   2.264   0.916
 1230WNA     WN 2462   4.806   0.852   1.106
 1230WNA     DN 2463   4.756   0.690   1.109
 1231WNA     WN 2464   1.417   1.487   5.268
 1231WNA     DN 2465   1.435   1.322   5.233
 1232WNA     WN 2466   5.044   1.115   5.771
 1232WNA     DN 2467   5.069   1.198   5.625
 1233WNA     WN 2468   1.445   0.372   6.106
 1233WNA     DN 2469   1.331   0.426   6.220
 1234WNA     WN 2470   5.274   6.011   4.046
 1234WNA     DN 2471   5.282   5.900   4.175
 1235WNA     WN 2472   3.743   4.439   6.115
 1235WNA     DN 2473   3.869   4.361   6.032
 1236WNA     WN 2474   4.700   0.980   6.129
 1236WNA     DN 2475   4.865   1.001   6.095
 1237WNA     WN 2476   0.217   3.132   5.136
 1237WNA     DN 2477   0.269   3.026   5.259
 1238WNA     WN 2478   1.827   4.964   5.714
 1238WNA     DN 2479   1.936   4.840   5.672
 1239WNA     WN 2480   3.754   5.539   0.435
 1239WNA     DN 2481   3.781   5.628   0.293
 1240WNA     WN 2482   2.848   1.912   0.391
 1240WNA     DN 2483   2.754   1.832   0.274
 1241WNA     WN 2484   0.576   4.234   0.769
 1241WNA     DN 2485   0.524   4.377   0.844
 1242WNA     WN 2486   4.159   4.267   4.743
 1242WNA     DN 2487   4.234   4.227   4.596
 1243WNA     WN 2488   3.001   1.318   1.248
 1243WNA     DN 2489   2.942   1.220   1.374
 1244WNA     WN 2490   6.170   1.144   0.660
 1244WNA     DN 2491   6.297   1.084   0.756
 1245WNA     WN 2492   3.960   1.507   0.146
 1245WNA     DN 2493   3.876   1.529   0.292
 1246WNA     WN 2494   5.520   1.983   2.777
 1246WNA     DN 2495   5.406   1.964   2.901
 1247WNA     WN 2496   5.044   4.331   1.230
 1247WNA     DN 2497   5.117   4.179   1.252
 1248WNA     WN 2498   3.146   3.284   2.539
 1248WNA     DN 2499   3.295   3.233   2.604
 1249WNA     WN 2500   0.672   5.639   0.592
 1249WNA     DN 2501   0.578   5.584   0.461
 1250WNA     WN 2502   1.565   0.736   2.475
 1250WNA     DN 2503   1.585   0.583   2.546
 1251WNA     WN 2504   4.663   1.727   0.375
 1251WNA     DN 2505   4.643   1.689   0.540
 1252WNA     WN 2506   4.391   3.032   5.771
 1252WNA     DN 2507   4.406   3.198   5.736
 1253WNA     WN 2508   5.145   0.246   2.627
 1253WNA     DN 2509   5.049   0.111   2.589
 1254WNA     WN 2510   4.905   1.185   2.681
 1254WNA     DN 2511   4.816   1.264   2.559
 1255WNA     WN 2512   4.416   2.182   5.904
 1255WNA     DN 2513   4.347   2.296   6.009
 1256WNA     WN 2514   3.332   5.656   0.166
 1256WNA     DN 2515   3.196   5.689   0.070
 1257WNA     WN 2516   6.141   1.897   5.564
 1257WNA     DN 2517   6.032   1.820   5.458
 1258WNA     WN 2518   4.235   1.793   1.578
 1258WNA     DN 2519   4.188   1.639   1.631
 1259WNA     WN 2520   1.003   4.569   4.638
 1259WNA     DN 2521   0.855   4.510   4.696
 1260WNA     WN 2522   2.143   1.280   4.487
 1260WNA     DN 2523   2.212   1.379   4.607
 1261WNA     WN 2524   2.263   1.992   5.664
 1261WNA     DN 2525   2.333   2.031   5.814
 1262WNA     WN 2526   0.601   5.608   1.987
 1262WNA     DN 2527   0.442   5.587   2.043
 1263WNA     WN 2528   0.250   2.638   3.274
 1263WNA     DN 2529   0.100   2.589   3.337
 1264WNA     WN 2530   5.434   3.665   4.879
 1264WNA     DN 2531   5.342   3.581   4.994
 1265WNA     WN 2532   0.616   3.865   1.721
 1265WNA     DN 2533   0.764   3.791   1.683
 1266WNA     WN 2534   5.283   2.423   1.701
 1266WNA     DN 2535   5.151   2.329   1.752
 1267WNA     WN 2536   1.676   5.773   1.360
 1267WNA     DN 2537   1.785   5.697   1.254
 1268WNA     WN 2538   3.181   1.691   5.738
 1268WNA     DN 2539   3.184   1.819   5.849
 1269WNA     WN 2540   5.773   0.617   6.229
 1269WNA     DN 2541   5.677   0.729   6.314
 1270WNA     WN 2542   2.160   4.918   2.338
 1270WNA     DN 2543   2.038   4.880   2.225
 1271WNA     WN 2544   0.458   3.843   2.616
 1271WNA     DN 2545   0.306   3.814   2.687
 1272WNA     WN 2546   1.177   2.604   3.212
 1272WNA     DN 2547   1.302   2.705   3.266
 1273WNA     WN 2548   0.598   5.180   5.006
 1273WNA     DN 2549   0.652   5.144   5.163
 1274WNA     WN 2550   5.193   4.157   0.404
 1274WNA     DN 2551   5.348   4.197   0.347
 1275WNA     WN 2552   4.766   4.983   2.310
 1275WNA     DN 2553   4.644   4.997   2.192
 1276WNA     WN 2554   3.769   4.726   1.517
 1276WNA     DN 2555   3.905   4.725   1.619
 1277WNA     WN 2556   1.722   4.042   5.304
 1277WNA     DN 2557   1.729   4.046   5.134
 1278WNA     WN 2558   2.328   3.963   4.992
 1278WNA     DN 2559   2.294   3.855   4.865
 1279WNA     WN 2560   3.428   4.529   3.577
 1279WNA     DN 2561   3.413   4.360   3.569
 1280WNA     WN 2562   5.325   2.988   2.479
 1280WNA     DN 2563   5.259   2.887   2.599
 1281WNA     WN 2564   1.327   2.196   4.402
 1281WNA     DN 2565   1.222   2.298   4.489
 1282WNA     WN 2566   5.374   3.114   5.914
 1282WNA     DN 2567   5.207   3.135   5.894
 1283WNA     WN 2568   5.412   1.284   0.425
 1283WNA     DN 2569   5.300   1.323   0.303
 1284WNA     WN 2570   2.757   3.367   3.327
 1284WNA     DN 2571   2.778   3.219   3.246
 1285WNA     WN 2572   4.533   6.216   5.698
 1285WNA     DN 2573   4.624   6.262   5.834
 1286WNA     WN 2574   4.042   3.663   2.980
 1286WNA     DN 2575   4.024   3.677   2.812
 1287WNA     WN 2576   0.476   0.187   1.809
 1287WNA     DN 2577   0.468   0.017   1.812
 1288WNA     WN 2578   4.306   0.090   2.156
 1288WNA     DN 2579   4.354   0.012   2.013
 1289WNA     WN 2580   2.681   5.921   1.332
 1289WNA     DN 2581   2.585   6.033   1.417
 1290WNA     WN 2582   4.246   0.938   1.166
 1290WNA     DN 2583   4.273   0.863   1.016
 1291WNA     WN 2584   1.437   3.211   0.312
 1291WNA     DN 2585   1.529   3.176   0.173
 1292WNA     WN 2586   2.029   0.121   4.492
 1292WNA     DN 2587   2.031   0.285   4.538
 1293WNA     WN 2588   0.029   3.613   3.254
 1293WNA     DN 2589   0.032   3.751   3.353
 1294WNA     WN 2590   4.284   4.214   5.896
 1294WNA     DN 2591   4.366   4.273   5.759
 1295WNA     WN 2592   5.364   3.627   0.267
 1295WNA     DN 2593   5.341   3.640   0.099
 1296WNA     WN 2594   0.652   0.792   2.602
 1296WNA     DN 2595   0.760   0.824   2.475
 1297WNA     WN 2596   5.256   3.327   5.428
 1297WNA     DN 2597   5.169   3.390   5.296
 1298WNA     WN 2598   3.043   5.992   5.757
 1298WNA     DN 2599   2.907   6.067   5.827
 1299WNA     WN 2600   5.409   2.766   5.339
 1299WNA     DN 2601   5.276   2.810   5.435
 1300WNA     WN 2602   1.725   4.175   0.454
 1300WNA     DN 2603   1.723   4.302   0.341
 1301WNA     WN 2604   1.558   3.632   2.919
 1301WNA     DN 2605   1.555   3.677   2.755
 1302WNA     WN 2606   6.037   0.731   5.002
 1302WNA     DN 2607   5.937   0.777   4.872
 1303WNA     WN 2608   4.371   0.867   3.072
 1303WNA     DN 2609   4.475   0.967   2.982
 1304WNA     WN 2610   0.461   0.130   2.933
 1304WNA     DN 2611   0.478   0.292   2.884
 1305WNA     WN 2612   0.076   3.410   2.620
 1305WNA     DN 2613   0.012   3.375   2.466
 1306WNA     WN 2614   6.116   1.009   3.287
 1306WNA     DN 2615   6.251   1.032   3.388
 1307WNA     WN 2616   1.138   2.800   2.264
 1307WNA     DN 2617   1.294   2.732   2.260
 1308WNA     WN 2618   3.960   1.911   4.860
 1308WNA     DN 2619   3.993   2.041   4.755
 1309WNA     WN 2620   2.694   4.980   2.285
 1309WNA     DN 2621   2.550   5.015   2.368
 1310WNA     WN 2622   3.612   1.329   3.901
 1310WNA     DN 2623   3.735   1.378   3.794
 1311WNA     WN 2624   4.323   1.426   2.473
 1311WNA     DN 2625   4.420   1.298   2.416
 1312WNA     WN 2626   2.175   3.273   1.317
 1312WNA     DN 2627   2.168   3.109   1.272
 1313WNA     WN 2628   2.953   6.119   4.857
 1313WNA     DN 2629   2.852   6.004   4.783
 1314WNA     WN 2630   0.237   2.899   1.330
 1314WNA     DN 2631   0.273   2.736   1.298
 1315WNA     WN 2632   3.422   1.525   3.247
 1315WNA     DN 2633   3.278   1.470   3.175
 1316WNA     WN 2634   3.839   4.967   6.008
 1316WNA     DN 2635   3.843   5.125   6.070
 1317WNA     WN 2636   2.192   3.772   1.539
 1317WNA     DN 2637   2.342   3.748   1.616
 1318WNA     WN 2638   2.800   5.702   5.001
 1318WNA     DN 2639   2.859   5.740   4.846
 1319WNA     WN 2640   0.194   5.804   5.958
 1319WNA     DN 2641   0.199   5.726   6.109
 1320WNA     WN 2642   1.241   0.320   3.864
 1320WNA     DN 2643   1.285   0.392   4.012
 1321WNA     WN 2644   0.054   1.738   3.706
 1321WNA     DN 2645   0.021   1.844   3.578
 1322WNA     WN 2646   1.643   1.290   1.233
 1322WNA     DN 2647   1.796   1.300   1.306
 1323WNA     WN 2648   0.140   4.057   5.066
 1323WNA     DN 2649   0.097   4.212   5.010
 1324WNA     WN 2650   2.885   1.307   5.932
 1324WNA     DN 2651   2.792   1.176   5.877
 1325WNA     WN 2652   1.022   2.714   5.881
 1325WNA     DN 2653   0.869   2.755   5.820
 1326WNA     WN 2654   3.791   5.919   3.958
 1326WNA     DN 2655   3.703   5.774   3.955
 1327WNA     WN 2656   5.587   4.410   2.045
 1327WNA     DN 2657   5.563   4.301   2.173
 1328WNA     WN 2658   3.077   4.652   2.253
 1328WNA     DN 2659   3.067   4.638   2.084
 1329WNA     WN 2660   4.539   2.452   2.865
 1329WNA     DN 2661   4.479   2.451   3.024
 1330WNA     WN 2662   5.181   1.711   0.381
 1330WNA     DN 2663   5.158   1.602   0.510
 1331WNA     WN 2664   4.284   4.304   2.352
 1331WNA     DN 2665   4.366   4.363   2.215
 1332WNA     WN 2666   2.046   1.900   3.987
 1332WNA     DN 2667   1.951   1.828   3.865
 1333WNA     WN 2668   5.646   4.693   2.505
 1333WNA     DN 2669   5.569   4.556   2.440
 1334WNA     WN 2670   1.188   4.062   2.581
 1334WNA     DN 2671   1.088   3.927   2.603
 1335WNA     WN 2672   4.258   1.141   0.296
 1335WNA     DN 2673   4.253   1.005   0.194
 1336WNA     WN 2674   6.004   2.901   0.503
 1336WNA     DN 2675   5.849   2.844   0.465
 1337WNA     WN 2676   0.472   4.812   2.614
 1337WNA     DN 2677   0.308   4.772   2.632
 1338WNA     WN 2678   4.974   3.880   2.728
 1338WNA     DN 2679   4.926   3.770   2.608
 1339WNA     WN 2680   3.153   5.226   3.525
 1339WNA     DN 2681   3.110   5.077   3.455
 1340WNA     WN 2682   1.499   4.769   1.774
 1340WNA     DN 2683   1.637   4.678   1.732
 1341WNA     WN 2684   0.126   3.890   2.314
 1341WNA     DN 2685   0.147   3.742   2.233
 1342WNA     WN 2686   0.023   4.443   1.315
 1342WNA     DN 2687   0.066   4.283   1.278
 1343WNA     WN 2688   5.080   4.950   1.079
 1343WNA     DN 2689   5.183   4.967   0.945
 1344WNA     WN 2690   1.596   4.477   0.045
 1344WNA     DN 2691   1.746   4.506  -0.029
 1345WNA     WN 2692   2.133   4.421   3.603
 1345WNA     DN 2693   2.222   4.538   3.517
 1346WNA     WN 2694   2.983   6.200   3.473
 1346WNA     DN 2695   3.117   6.300   3.443
 1347WNA     WN 2696   2.609   4.638   4.266
 1347WNA     DN 2697   2.658   4.693   4.113
 1348WNA     WN 2698   2.360   4.706   0.357
 1348WNA     DN 2699   2.334   4.802   0.495
 1349WNA     WN 2700   5.379   5.456   0.394
 1349WNA     DN 2701   5.304   5.556   0.509
 1350WNA     WN 2702   0.362   3.838   6.150
 1350WNA     DN 2703   0.290   3.893   6.006
 1351WNA     WN 2704   4.228   3.362   1.225
 1351WNA     DN 2705   4.286   3.511   1.283
 1352WNA     WN 2706   2.748   0.294   0.763
 1352WNA     DN 2707   2.784   0.460   0.757
 1353WNA     WN 2708   1.669   5.099   2.580
 1353WNA     DN 2709   1.527   5.178   2.631
 1354WNA     WN 2710   5.211   2.653   5.762
 1354WNA     DN 2711   5.369   2.601   5.796
 1355WNA     WN 2712   4.962   2.048   4.782
 1355WNA     DN 2713   4.981   2.102   4.942
 1356WNA     WN 2714   0.360   2.388   0.085
 1356WNA     DN 2715   0.201   2.385   0.146
 1357WNA     WN 2716   2.166   2.778   0.771
 1357WNA     DN 2717   2.159   2.715   0.929
 1358WNA     WN 2718   0.721   0.441   3.845
 1358WNA     DN 2719   0.739   0.436   4.014
 1359WNA     WN 2720   4.125   2.651   2.688
 1359WNA     DN 2721   4.115   2.544   2.820
 1360WNA     WN 2722   1.659   0.425   4.229
 1360WNA     DN 2723   1.650   0.556   4.122
 1361WNA     WN 2724   2.822   4.297   1.768
 1361WNA     DN 2725   2.876   4.139   1.736
 1362WNA     WN 2726   1.869   5.850   5.793
 1362WNA     DN 2727   1.969   5.885   5.926
 1363WNA     WN 2728   2.517   0.214   4.733
 1363WNA     DN 2729   2.628   0.099   4.791
 1364WNA     WN 2730   4.771   1.881   6.051
 1364WNA     DN 2731   4.700   2.034   6.069
 1365WNA     WN 2732   4.441   0.871   3.532
 1365WNA     DN 2733   4.318   0.926   3.429
 1366WNA     WN 2734   0.301   2.553   1.655
 1366WNA     DN 2735   0.137   2.546   1.699
 1367WNA     WN 2736   5.047   1.415   3.401
 1367WNA     DN 2737   5.024   1.247   3.415
 1368WNA     WN 2738   5.320   6.070   2.229
 1368WNA     DN 2739   5.297   6.114   2.392
 1369WNA     WN 2740   1.775   3.122   1.072
 1369WNA     DN 2741   1.918   3.074   0.994
 1370WNA     WN 2742   3.064   3.715   5.979
 1370WNA     DN 2743   3.108   3.599   6.095
 1371WNA     WN 2744   3.801   2.724   3.049
 1371WNA     DN 2745   3.746   2.878   3.095
 1372WNA     WN 2746   3.869   3.530   6.170
 1372WNA     DN 2747   3.840   3.572   6.008
 1373WNA     WN 2748   4.145   5.279   4.902
 1373WNA     DN 2749   4.113   5.239   5.064
 1374WNA     WN 2750   5.616   4.971   1.948
 1374WNA     DN 2751   5.474   4.899   1.887
 1375WNA     WN 2752   4.111   0.083   2.579
 1375WNA     DN 2753   4.038   0.116   2.429
 1376WNA     WN 2754   4.604   0.225   1.610
 1376WNA     DN 2755   4.703   0.181   1.741
 1377WNA     WN 2756   3.987   1.915   1.035
 1377WNA     DN 2757   3.985   2.002   0.889
 1378WNA     WN 2758   4.904   3.806   4.277
 1378WNA     DN 2759   4.790   3.709   4.358
 1379WNA     WN 2760   2.916   4.055   2.717
 1379WNA     DN 2761   2.880   4.214   2.764
 1380WNA     WN 2762   1.559   1.989   4.003
 1380WNA     DN 2763   1.463   1.854   3.965
 1381WNA     WN 2764   5.375   4.127   3.899
 1381WNA     DN 2765   5.384   4.008   3.778
 1382WNA     WN 2766   6.185   3.407   6.218
 1382WNA     DN 2767   6.154   3.534   6.326
 1383WNA     WN 2768   4.182   3.298   3.273
 1383WNA     DN 2769   4.313   3.204   3.327
 1384WNA     WN 2770   0.977   3.504   4.481
 1384WNA     DN 2771   0.892   3.487   4.335
 1385WNA     WN 2772   3.861   2.183   2.652
 1385WNA     DN 2773   3.852   2.014   2.666
 1386WNA     WN 2774   3.210   3.460   3.089
 1386WNA     DN 2775   3.048   3.451   3.039
 1387WNA     WN 2776   2.140   5.483   2.999
 1387WNA     DN 2777   2.177   5.562   2.853
 1388WNA     WN 2778   3.148   4.467   4.211
 1388WNA     DN 2779   3.254   4.596   4.243
 1389WNA     WN 2780   4.102   3.927   4.377
 1389WNA     DN 2781   4.164   3.904   4.221
 1390WNA     WN 2782   4.990   2.209   0.270
 1390WNA     DN 2783   4.889   2.292   0.379
 1391WNA     WN 2784   4.614   3.756   5.626
 1391WNA     DN 2785   4.590   3.773   5.459
 1392WNA     WN 2786   5.814   2.825   4.615
 1392WNA     DN 2787   5.843   2.660   4.584
 1393WNA     WN 2788   3.493   1.923   2.290
 1393WNA     DN 2789   3.408   1.906   2.144
 1394WNA     WN 2790   3.391   0.740   1.017
 1394WNA     DN 2791   3.540   0.732   1.098
 1395WNA     WN 2792   4.634   3.446   4.096
 1395WNA     DN 2793   4.731   3.535   4.204
 1396WNA     WN 2794   0.511   3.531   3.101
 1396WNA     DN 2795   0.356   3.583   3.054
 1397WNA     WN 2796   5.875   3.855   4.264
 1397WNA     DN 2797   5.967   3.889   4.125
 1398WNA     WN 2798   2.031   1.028   4.000
 1398WNA     DN 2799   2.029   1.108   3.850
 1399WNA     WN 2800   6.099   4.754   2.152
 1399WNA     DN 2801   6.247   4.732   2.233
 1400WNA     WN 2802   2.085   0.678   2.606
 1400WNA     DN 2803   2.028   0.764   2.471
 1401WNA     WN 2804   0.253   3.102   3.964
 1401WNA     DN 2805   0.290   3.239   4.058
 1402WNA     WN 2806   5.012   0.497   1.423
 1402WNA     DN 2807   5.168   0.549   1.467
 1403WNA     WN 2808   5.475   4.574   4.174
 1403WNA     DN 2809   5.416   4.423   4.224
 1404WNA     WN 2810   5.475   5.876   1.347
 1404WNA     DN 2811   5.323   5.803   1.326
 1405WNA     WN 2812   0.151   4.105   1.715
 1405WNA     DN 2813   0.232   4.042   1.851
 1406WNA     WN 2814   3.044   4.795   5.474
 1406WNA     DN 2815   3.121   4.753   5.620
 1407WNA     WN 2816   1.052   5.159   4.051
 1407WNA     DN 2817   0.929   5.199   3.941
 1408WNA     WN 2818   2.614   1.862   2.660
 1408WNA     DN 2819   2.518   1.828   2.524
 1409WNA     WN 2820   0.550   2.042   2.621
 1409WNA     DN 2821   0.500   1.880   2.611
 1410WNA     WN 2822   1.754   2.220   1.127
 1410WNA     DN 2823   1.838   2.090   1.057
 1411WNA     WN 2824   5.381   3.894   1.948
 1411WNA     DN 2825   5.479   3.778   2.024
 1412WNA     WN 2826   3.943   0.811   3.246
 1412WNA     DN 2827   3.922   0.825   3.078
 1413WNA     WN 2828   3.025   3.959   4.949
 1413WNA     DN 2829   3.003   3.826   5.053
 1414WNA     WN 2830   1.068   1.015   5.278
 1414WNA     DN 2831   1.051   1.002   5.109
 1415WNA     WN 2832   5.780   4.441   3.444
 1415WNA     DN 2833   5.943   4.488   3.447
 1416WNA     WN 2834   2.610   5.224   0.577
 1416WNA     DN 2835   2.477   5.299   0.502
 1417WNA     WN 2836   3.678   2.487   0.391
 1417WNA     DN 2837   3.672   2.361   0.277
 1418WNA     WN 2838   3.884   4.045   0.274
 1418WNA     DN 2839   3.773   4.081   0.398
 1419WNA     WN 2840   5.013   5.932   2.643
 1419WNA     DN 2841   4.975   5.818   2.523
 1420WNA     WN 2842   2.915   3.273   0.539
 1420WNA     DN 2843   3.015   3.141   0.578
 1421WNA     WN 2844   4.481   3.728   4.622
 1421WNA     DN 2845   4.552   3.882   4.612
 1422WNA     WN 2846   0.124   3.471   4.298
 1422WNA     DN 2847   0.239   3.480   4.174
 1423WNA     WN 2848   4.956   5.380   1.343
 1423WNA     DN 2849   5.070   5.486   1.275
 1424WNA     WN 2850   5.481   2.141   3.840
 1424WNA     DN 2851   5.439   2.015   3.734
 1425WNA     WN 2852   3.281   0.873   4.600
 1425WNA     DN 2853   3.220   1.032   4.601
 1426WNA     WN 2854   3.237   6.092   1.567
 1426WNA     DN 2855   3.087   6.126   1.640
 1427WNA     WN 2856   4.585   5.778   2.935
 1427WNA     DN 2857   4.634   5.913   2.845
 1428WNA     WN 2858   5.608   5.411   5.677
 1428WNA     DN 2859   5.528   5.529   5.770
 1429WNA     WN 2860   5.143   4.262   1.770
 1429WNA     DN 2861   5.244   4.125   1.777
 1430WNA     WN 2862   0.050   5.674   3.200
 1430WNA     DN 2863   0.109   5.515   3.211
 1431WNA     WN 2864   0.630   0.466   0.846
 1431WNA     DN 2865   0.613   0.485   1.014
 1432WNA     WN 2866   5.161   5.740   5.725
 1432WNA     DN 2867   5.280   5.643   5.651
 1433WNA     WN 2868   1.491   6.083   0.127
 1433WNA     DN 2869   1.358   6.189   0.130
 1434WNA     WN 2870   4.087   4.481   3.618
 1434WNA     DN 2871   4.120   4.452   3.454
 1435WNA     WN 2872   2.827   2.959   4.532
 1435WNA     DN 2873   2.783   3.118   4.574
 1436WNA     WN 2874   4.456   4.843   6.096
 1436WNA     DN 2875   4.498   4.679   6.112
 1437WNA     WN 2876   2.518   5.184   4.191
 1437WNA     DN 2877   2.440   5.100   4.316
 1438WNA     WN 2878   4.490   0.941   2.463
 1438WNA     DN 2879   4.442   1.103   2.477
 1439WNA     WN 2880   5.877   5.813   5.231
 1439WNA     DN 2881   5.971   5.772   5.095
 1440WNA     WN 2882   5.451   4.338   4.811
 1440WNA     DN 2883   5.436   4.400   4.969
 1441WNA     WN 2884   1.453   1.654   1.633
 1441WNA     DN 2885   1.377   1.502   1.635
 1442WNA     WN 2886   4.594   6.003   4.370
 1442WNA     DN 2887   4.698   5.889   4.299
 1443WNA     WN 2888   5.587   2.126   4.450
 1443WNA     DN 2889   5.547   1.966   4.489
 1444WNA     WN 2890   2.289   3.045   5.439
 1444WNA     DN 2891   2.132   2.983   5.423
 1445WNA     WN 2892   2.676   0.928   0.042
 1445WNA     DN 2893   2.755   0.999  -0.090
 1446WNA     WN 2894   4.246   1.296   5.422
 1446WNA     DN 2895   4.104   1.375   5.473
 1447WNA     WN 2896   2.587   1.068   1.144
 1447WNA     DN 2897   2.693   1.099   1.273
 1448WNA     WN 2898   1.838   6.050   2.640
 1448WNA     DN 2899   1.853   6.213   2.685
 1449WNA     WN 2900   0.871   1.517   5.259
 1449WNA     DN 2901   1.011   1.614   5.250
 1450WNA     WN 2902   5.900   0.976   2.662
 1450WNA     DN 2903   5.821   0.838   2.723
 1451WNA     WN 2904   1.833   2.376   3.915
 1451WNA     DN 2905   1.741   2.488   3.827
 1452WNA     WN 2906   1.769   4.712   5.296
 1452WNA     DN 2907   1.703   4.865   5.262
 1453WNA     WN 2908   2.028   0.585   2.081
 1453WNA     DN 2909   1.926   0.694   2.162
 1454WNA     WN 2910   6.175   4.484   5.352
 1454WNA     DN 2911   6.340   4.503   5.317
 1455WNA     WN 2912   1.485   1.226   5.671
 1455WNA     DN 2913   1.653   1.234   5.648
 1456WNA     WN 2914   4.467   1.192   4.938
 1456WNA     DN 2915   4.454   1.207   5.107
 1457WNA     WN 2916   1.794   5.288   0.522
 1457WNA     DN 2917   1.812   5.313   0.689
 1458WNA     WN 2918   5.260   2.718   3.567
 1458WNA     DN 2919   5.099   2.714   3.513
 1459WNA     WN 2920   6.121   0.938   0.220
 1459WNA     DN 2921   6.286   0.938   0.178
 1460WNA     WN 2922   4.998   3.742   1.455
 1460WNA     DN 2923   5.139   3.754   1.549
 1461WNA     WN 2924   5.519   5.704   3.322
 1461WNA     DN 2925   5.352   5.678   3.300
 1462WNA     WN 2926   1.870   1.864   1.458
 1462WNA     DN 2927   1.772   1.763   1.553
 1463WNA     WN 2928   4.275   3.207   1.771
 1463WNA     DN 2929   4.191   3.178   1.626
 1464WNA     WN 2930   1.441   5.917   2.164
 1464WNA     DN 2931   1.549   5.786   2.156
 1465WNA     WN 2932   4.599   2.175   3.212
 1465WNA     DN 2933   4.493   2.105   3.325
 1466WNA     WN 2934   1.785   1.920   2.551
 1466WNA     DN 2935   1.656   1.965   2.652
 1467WNA     WN 2936   0.392   1.384   0.918
 1467WNA     DN 2937   0.478   1.495   1.014
 1468WNA     WN 2938   3.828   0.141   2.163
 1468WNA     DN 2939   3.702   0.033   2.128
 1469WNA     WN 2940   2.357   1.873   3.223
 1469WNA     DN 2941   2.525   1.881   3.200
 1470WNA     WN 2942   5.682   1.768   5.361
 1470WNA     DN 2943   5.604   1.684   5.486
 1471WNA     WN 2944   0.448   5.639   2.433
 1471WNA     DN 2945   0.285   5.653   2.385
 1472WNA     WN 2946   3.380   3.401   4.001
 1472WNA     DN 2947   3.333   3.305   3.869
 1473WNA     WN 2948   1.721   4.810   4.714
 1473WNA     DN 2949   1.735   4.645   4.754
 1474WNA     WN 2950   2.158   5.488   4.238
 1474WNA     DN 2951   1.995   5.472   4.192
 1475WNA     WN 2952   4.422   0.117   6.207
 1475WNA     DN 2953   4.428   0.265   6.290
 1476WNA     WN 2954   3.787   5.891   0.827
 1476WNA     DN 2955   3.866   6.032   0.881
 1477WNA     WN 2956   1.575   2.041   0.618
 1477WNA     DN 2957   1.667   2.056   0.760
 1478WNA     WN 2958   3.717   5.018   1.922
 1478WNA     DN 2959   3.586   5.125   1.905
 1479WNA     WN 2960   2.833   6.117   1.794
 1479WNA     DN 2961   2.781   5.963   1.843
 1480WNA     WN 2962   0.196   5.574   3.644
 1480WNA     DN 2963   0.065   5.615   3.543
 1481WNA     WN 2964   0.873   5.354   4.576
 1481WNA     DN 2965   0.828   5.203   4.640
 1482WNA     WN 2966   0.219   5.228   2.755
 1482WNA     DN 2967   0.323   5.112   2.823
 1483WNA     WN 2968   4.584   5.367   0.018
 1483WNA     DN 2969   4.700   5.318  -0.096
 1484WNA     WN 2970   3.925   1.182   1.514
 1484WNA     DN 2971   3.784   1.089   1.530
 1485WNA     WN 2972   5.708   3.590   1.221
 1485WNA     DN 2973   5.679   3.756   1.244
 1486WNA     WN 2974   5.031   4.786   5.857
 1486WNA     DN 2975   4.931   4.867   5.969
 1487WNA     WN 2976   5.739   1.005   1.432
 1487WNA     DN 2977   5.690   0.883   1.324
 1488WNA     WN 2978   1.805   5.517   5.386
 1488WNA     DN 2979   1.878   5.425   5.509
 1489WNA     WN 2980   5.046   0.087   0.198
 1489WNA     DN 2981   4.931   0.083   0.323
 1490WNA     WN 2982   4.140   5.771   2.490
 1490WNA     DN 2983   4.088   5.662   2.610
 1491WNA     WN 2984   4.176   1.357   1.947
 1491WNA     DN 2985   4.062   1.380   1.823
 1492WNA     WN 2986   1.168   1.117   3.206
 1492WNA     DN 2987   1.108   0.975   3.135
 1493WNA     WN 2988   2.302   3.676   0.040
 1493WNA     DN 2989   2.393   3.722   0.176
 1494WNA     WN 2990   1.803   4.354   4.083
 1494WNA     DN 2991   1.914   4.385   4.208
 1495WNA     WN 2992   1.038   3.017   3.333
 1495WNA     DN 2993   1.206   3.006   3.357
 1496WNA     WN 2994   5.383   0.260   4.458
 1496WNA     DN 2995   5.333   0.098   4.448
 1497WNA     WN 2996   6.115   2.394   2.366
 1497WNA     DN 2997   6.197   2.505   2.465
 1498WNA     WN 2998   1.794   4.756   0.427
 1498WNA     DN 2999   1.887   4.658   0.530
 1499WNA     WN 3000   1.433   2.759   2.653
 1499WNA     DN 3001   1.359   2.742   2.805
 1500WNA     WN 3002   5.452   1.344   1.636
 1500WNA     DN 3003   5.609   1.290   1.673
 1501WNA     WN 3004   1.782   2.917   2.274
 1501WNA     DN 3005   1.723   2.793   2.173
 1502WNA     WN 3006   0.534   4.243   4.780
 1502WNA     DN 3007   0.514   4.290   4.618
 1503WNA     WN 3008   1.387   0.743   3.523
 1503WNA     DN 3009   1.228   0.694   3.489
 1504WNA     WN 3010   1.209   0.782   2.116
 1504WNA     DN 3011   1.084   0.895   2.097
 1505WNA     WN 3012   3.000   3.465   5.072
 1505WNA     DN 3013   2.938   3.534   4.930
 1506WNA     WN 3014   2.052   4.934   3.075
 1506WNA     DN 3015   1.985   4.860   2.937
 1507WNA     WN 3016   0.503   1.581   2.156
 1507WNA     DN 3017   0.352   1.550   2.229
 1508WNA     WN 3018   1.266   5.835   5.165
 1508WNA     DN 3019   1.315   5.673   5.184
 1509WNA     WN 3020   5.855   2.571   3.654
 1509WNA     DN 3021   5.822   2.410   3.697
 1510WNA     WN 3022   4.160   2.427   4.804
 1510WNA     DN 3023   4.283   2.387   4.693
 1511WNA     WN 3024   4.579   2.766   1.812
 1511WNA     DN 3025   4.652   2.757   1.965
 1512WNA     WN 3026   5.454   1.139   3.596
 1512WNA     DN 3027   5.483   0.979   3.545
 1513WNA     WN 3028   2.974   5.248   1.007
 1513WNA     DN 3029   2.893   5.167   0.881
 1514WNA     WN 3030   5.838   4.101   1.560
 1514WNA     DN 3031   5.984   4.121   1.475
 1515WNA     WN 3032   4.603   3.620   2.279
 1515WNA     DN 3033   4.621   3.742   2.162
 1516WNA     WN 3034   5.412   2.117   4.883
 1516WNA     DN 3035   5.377   2.087   5.047
 1517WNA     WN 3036   3.715   4.998   4.944
 1517WNA     DN 3037   3.615   5.081   5.053
 1518WNA     WN 3038   3.926   5.464   1.947
 1518WNA     DN 3039   3.807   5.350   1.988
 1519WNA     WN 3040   4.994   0.575   3.881
 1519WNA     DN 3041   4.933   0.734   3.882
 1520WNA     WN 3042   4.086   5.141   1.650
 1520WNA     DN 3043   4.034   5.029   1.533
 1521WNA     WN 3044   3.385   2.130   5.971
 1521WNA     DN 3045   3.440   1.997   5.881
 1522WNA     WN 3046   3.206   2.664   0.437
 1522WNA     DN 3047   3.067   2.596   0.507
 1523WNA     WN 3048   2.882   0.957   5.009
 1523WNA     DN 3049   2.792   0.971   4.865
 1524WNA     WN 3050   3.356   6.143   2.099
 1524WNA     DN 3051   3.309   6.234   1.964
 1525WNA     WN 3052   5.700   2.671   2.355
 1525WNA     DN 3053   5.756   2.555   2.466
 1526WNA     WN 3054   0.575   1.599   2.844
 1526WNA     DN 3055   0.658   1.451   2.837
 1527WNA     WN 3056   3.332   0.231   3.804
 1527WNA     DN 3057   3.333   0.380   3.722
 1528WNA     WN 3058   2.433   0.156   3.378
 1528WNA     DN 3059   2.301   0.103   3.471
 1529WNA     WN 3060   1.275   5.586   4.183
 1529WNA     DN 3061   1.150   5.637   4.286
 1530WNA     WN 3062   4.825   1.289   0.365
 1530WNA     DN 3063   4.807   1.452   0.410
 1531WNA     WN 3064   1.987   4.676   6.154
 1531WNA     DN 3065   2.132   4.633   6.076
 1532WNA     WN 3066   0.287   5.206   5.758
 1532WNA     DN 3067   0.437   5.140   5.712
 1533WNA     WN 3068   3.605   1.722   4.484
 1533WNA     DN 3069   3.579   1.818   4.622
 1534WNA     WN 3070   2.496   2.307   2.439
 1534WNA     DN 3071   2.378   2.316   2.561
 1535WNA     WN 3072   1.267   5.553   3.186
 1535WNA     DN 3073   1.292   5.636   3.040
 1536WNA     WN 3074   1.773   5.152   2.111
 1536WNA     DN 3075   1.927   5.208   2.157
 1537WNA     WN 3076   3.491   1.453   2.092
 1537WNA     DN 3077   3.394   1.329   2.028
 1538WNA     WN 3078   2.687   4.335   3.732
 1538WNA     DN 3079   2.647   4.290   3.891
 1539WNA     WN 3080   2.635   3.246   2.322
 1539WNA     DN 3081   2.493   3.195   2.243
 1540WNA     WN 3082   1.061   5.684   1.872
 1540WNA     DN 3083   1.134   5.819   1.800
 1541WNA     WN 3084   3.262   4.043   3.411
 1541WNA     DN 3085   3.375   4.115   3.306
 1542WNA     WN 3086   5.987   2.792   1.463
 1542WNA     DN 3087   6.153   2.826   1.478
 1543WNA     WN 3088   4.061   4.932   2.367
 1543WNA     DN 3089   4.070   4.782   2.288
 1544WNA     WN 3090   2.290   2.819   6.155
 1544WNA     DN 3091   2.128   2.856   6.121
 1545WNA     WN 3092   5.890   4.550   5.782
 1545WNA     DN 3093   5.838   4.468   5.642
 1546WNA     WN 3094   0.223   5.211   4.647
 1546WNA     DN 3095   0.054   5.228   4.649
 1547WNA     WN 3096   3.658   0.587   4.678
 1547WNA     DN 3097   3.569   0.458   4.612
 1548WNA     WN 3098   2.243   4.162   1.233
 1548WNA     DN 3099   2.295   4.056   1.356
 1549WNA     WN 3100   5.375   1.354   1.116
 1549WNA     DN 3101   5.411   1.520   1.114
 1550WNA     WN 3102   0.399   0.560   5.839
 1550WNA     DN 3103   0.377   0.392   5.825
 1551WNA     WN 3104   1.522   6.116   1.691
 1551WNA     DN 3105   1.518   5.953   1.643
 1552WNA     WN 3106   5.224   0.569   4.955
 1552WNA     DN 3107   5.084   0.649   4.902
 1553WNA     WN 3108   4.207   2.654   0.259
 1553WNA     DN 3109   4.246   2.494   0.301
 1554WNA     WN 3110   4.961   5.091   4.630
 1554WNA     DN 3111   5.089   5.051   4.525
 1555WNA     WN 3112   0.614   5.322   0.990
 1555WNA     DN 3113   0.537   5.253   1.125
 1556WNA     WN 3114   4.971   5.626   0.341
 1556WNA     DN 3115   4.991   5.473   0.412
 1557WNA     WN 3116   6.210   2.483   4.443
 1557WNA     DN 3117   6.064   2.567   4.469
 1558WNA     WN 3118   4.012   5.796   3.438
 1558WNA     DN 3119   3.945   5.763   3.286
 1559WNA     WN 3120   3.253   5.727   2.992
 1559WNA     DN 3121   3.343   5.798   2.867
 1560WNA     WN 3122   4.049   6.207   1.395
 1560WNA     DN 3123   4.067   6.275   1.550
 1561WNA     WN 3124   0.073   1.419   2.079
 1561WNA     DN 3125  -0.033   1.344   2.189
 1562WNA     WN 3126   5.091   5.570   3.780
 1562WNA     DN 3127   5.008   5.705   3.840
 1563WNA     WN 3128   1.692   4.202   3.542
 1563WNA     DN 3129   1.639   4.053   3.606
 1564WNA     WN 3130   1.399   5.436   1.681
 1564WNA     DN 3131   1.527   5.544   1.653
 1565WNA     WN 3132   2.224   4.200   1.799
 1565WNA     DN 3133   2.254   4.326   1.909
 1566WNA     WN 3134   4.486   0.443   2.566
 1566WNA     DN 3135   4.457   0.301   2.476
 1567WNA     WN 3136   5.144   5.768   0.971
 1567WNA     DN 3137   5.276   5.864   1.020
 1568WNA     WN 3138   1.501   0.928   0.994
 1568WNA     DN 3139   1.407   1.022   0.888
 1569WNA     WN 3140   5.906   5.037   1.421
 1569WNA     DN 3141   6.034   5.000   1.526
 1570WNA     WN 3142   4.768   5.267   3.576
 1570WNA     DN 3143   4.740   5.165   3.443
 1571WNA     WN 3144   4.762   1.640   2.375
 1571WNA     DN 3145   4.687   1.562   2.244
 1572WNA     WN 3146   3.204   1.198   2.976
 1572WNA     DN 3147   3.269   1.061   3.054
 1573WNA     WN 3148   0.545   0.367   3.354
 1573WNA     DN 3149   0.400   0.414   3.429
 1574WNA     WN 3150   3.048   2.014   0.876
 1574WNA     DN 3151   2.971   2.164   0.853
 1575WNA     WN 3152   1.624   5.718   0.835
 1575WNA     DN 3153   1.548   5.716   0.683
 1576WNA     WN 3154   2.674   6.065   5.378
 1576WNA     DN 3155   2.572   6.201   5.386
 1577WNA     WN 3156   5.645   3.390   6.193
 1577WNA     DN 3157   5.518   3.494   6.149
 1578WNA     WN 3158   4.210   3.786   2.516
 1578WNA     DN 3159   4.050   3.762   2.567
 1579WNA     WN 3160   0.080   1.944   2.162
 1579WNA     DN 3161  -0.049   1.838   2.131
 1580WNA     WN 3162   4.709   5.271   4.046
 1580WNA     DN 3163   4.577   5.249   4.150
 1581WNA     WN 3164   4.489   2.615   4.390
 1581WNA     DN 3165   4.608   2.726   4.439
 1582WNA     WN 3166   1.377   4.325   3.878
 1582WNA     DN 3167   1.314   4.188   3.799
 1583WNA     WN 3168   2.056   2.715   5.056
 1583WNA     DN 3169   1.968   2.691   4.913
 1584WNA     WN 3170   3.772   3.034   0.415
 1584WNA     DN 3171   3.712   2.899   0.331
 1585WNA     WN 3172   2.700   2.154   3.362
 1585WNA     DN 3173   2.693   2.322   3.337
 1586WNA     WN 3174   1.196   1.469   6.214
 1586WNA     DN 3175   1.162   1.315   6.277
 1587WNA     WN 3176   4.189   3.425   5.666
 1587WNA     DN 3177   4.025   3.385   5.684
 1588WNA     WN 3178   3.432   0.313   2.430
 1588WNA     DN 3179   3.301   0.378   2.516
 1589WNA     WN 3180   1.339   0.995   6.091
 1589WNA     DN 3181   1.497   0.958   6.041
 1590WNA     WN 3182   1.790   5.146   5.057
 1590WNA     DN 3183   1.785   5.101   4.893
 1591WNA     WN 3184   0.652   1.120   2.944
 1591WNA     DN 3185   0.499   1.102   2.873
 1592WNA     WN 3186   4.603   0.335   5.257
 1592WNA     DN 3187   4.646   0.252   5.399
 1593WNA     WN 3188   3.002   4.926   4.312
 1593WNA     DN 3189   2.838   4.940   4.356
 1594WNA     WN 3190   0.194   4.812   3.067
 1594WNA     DN 3191   0.133   4.858   2.915
 1595WNA     WN 3192   2.362   2.893   4.469
 1595WNA     DN 3193   2.330   2.746   4.390
 1596WNA     WN 3194   3.623   3.694   4.384
 1596WNA     DN 3195   3.761   3.730   4.477
 1597WNA     WN 3196   6.106   4.562   6.213
 1597WNA     DN 3197   5.970   4.557   6.112
 1598WNA     WN 3198   0.779   0.119   5.540
 1598WNA     DN 3199   0.792   0.286   5.569
 1599WNA     WN 3200   2.387   4.602   1.552
 1599WNA     DN 3201   2.491   4.677   1.663
 1600WNA     WN 3202   1.785   2.123   5.692
 1600WNA     DN 3203   1.816   2.283   5.740
 1601WNA     WN 3204   5.905   3.838   0.088
 1601WNA     DN 3205   5.860   3.864  -0.074
 1602WNA     WN 3206   2.168   0.559   5.597
 1602WNA     DN 3207   2.088   0.658   5.484
 1603WNA     WN 3208   3.121   4.758   0.878
 1603WNA     DN 3209   3.010   4.674   0.781
 1604WNA     WN 3210   3.298   2.533   1.346
 1604WNA     DN 3211   3.369   2.617   1.475
 1605WNA     WN 3212   3.488   5.592   4.120
 1605WNA     DN 3213   3.520   5.439   4.052
 1606WNA     WN 3214   1.312   2.484   0.011
 1606WNA     DN 3215   1.201   2.421  -0.102
 1607WNA     WN 3216   1.824   1.758   4.953
 1607WNA     DN 3217   1.955   1.664   5.007
 1608WNA     WN 3218   2.091   3.774   2.130
 1608WNA     DN 3219   1.984   3.646   2.162
 1609WNA     WN 3220   0.536   2.727   6.042
 1609WNA     DN 3221   0.468   2.708   6.197
 1610WNA     WN 3222   1.231   4.052   5.109
 1610WNA     DN 3223   1.214   3.887   5.074
 1611WNA     WN 3224   4.638   2.141   0.633
 1611WNA     DN 3225   4.493   2.053   0.628
 1612WNA     WN 3226   0.798   0.470   2.971
 1612WNA     DN 3227   0.824   0.568   3.107
 1613WNA     WN 3228   2.857   0.256   5.132
 1613WNA     DN 3229   2.914   0.343   5.266
 1614WNA     WN 3230   3.881   0.893   0.134
 1614WNA     DN 3231   3.741   0.796   0.139
 1615WNA     WN 3232   0.097   5.446   0.122
 1615WNA     DN 3233   0.017   5.545   0.009
 1616WNA     WN 3234   2.296   2.210   6.118
 1616WNA     DN 3235   2.400   2.241   6.249
 1617WNA     WN 3236   1.321   3.806   5.707
 1617WNA     DN 3237   1.398   3.764   5.853
 1618WNA     WN 3238   5.034   3.267   1.352
 1618WNA     DN 3239   4.948   3.120   1.351
 1619WNA     WN 3240   3.711   3.515   5.529
 1619WNA     DN 3241   3.716   3.413   5.665
 1620WNA     WN 3242   3.830   1.205   5.790
 1620WNA     DN 3243   3.759   1.075   5.706
 1621WNA     WN 3244   5.993   2.886   4.098
 1621WNA     DN 3245   6.118   2.955   4.005
 1622WNA     WN 3246   2.532   2.839   1.986
 1622WNA     DN 3247   2.672   2.897   2.063
 1623WNA     WN 3248   3.327   1.369   4.948
 1623WNA     DN 3249   3.418   1.317   5.082
 1624WNA     WN 3250   3.442   3.430   1.253
 1624WNA     DN 3251   3.400   3.396   1.092
 1625WNA     WN 3252   4.574   1.895   3.638
 1625WNA     DN 3253   4.438   1.983   3.691
 1626WNA     WN 3254   0.228   5.700   0.821
 1626WNA     DN 3255   0.120   5.829   0.795
 1627WNA     WN 3256   3.446   1.000   3.377
 1627WNA     DN 3257   3.518   1.153   3.387
 1628WNA     WN 3258   1.305   3.899   4.147
 1628WNA     DN 3259   1.166   3.831   4.217
 1629WNA     WN 3260   2.746   1.840   5.677
 1629WNA     DN 3261   2.836   1.926   5.792
 1630WNA     WN 3262   4.705   2.804   4.832
 1630WNA     DN 3263   4.851   2.886   4.865
 1631WNA     WN 3264   4.512   3.461   6.030
 1631WNA     DN 3265   4.515   3.372   5.885
 1632WNA     WN 3266   4.619   4.563   1.139
 1632WNA     DN 3267   4.774   4.573   1.070
 1633WNA     WN 3268   1.437   2.124   3.220
 1633WNA     DN 3269   1.319   2.007   3.183
 1634WNA     WN 3270   2.277   2.125   1.445
 1634WNA     DN 3271   2.140   2.176   1.531
 1635WNA     WN 3272   4.760   5.158   0.428
 1635WNA     DN 3273   4.909   5.237   0.450
 1636WNA     WN 3274   0.167   4.907   4.250
 1636WNA     DN 3275   0.231   4.950   4.402
 1637WNA     WN 3276   0.230   3.907   5.589
 1637WNA     DN 3277   0.275   3.847   5.742
 1638WNA     WN 3278   1.302   2.071   1.965
 1638WNA     DN 3279   1.453   2.149   1.961
 1639WNA     WN 3280   0.698   1.429   6.101
 1639WNA     DN 3281   0.691   1.307   6.219
 1640WNA     WN 3282   5.984   0.223   3.779
 1640WNA     DN 3283   5.864   0.181   3.892
 1641WNA     WN 3284   5.466   5.287   4.628
 1641WNA     DN 3285   5.552   5.395   4.529
 1642WNA     WN 3286   5.666   2.297   5.761
 1642WNA     DN 3287   5.691   2.424   5.650
 1643WNA     WN 3288   6.108   4.678   3.837
 1643WNA     DN 3289   6.172   4.786   3.722
 1644WNA     WN 3290   2.914   3.821   3.232
 1644WNA     DN 3291   2.829   3.698   3.313
 1645WNA     WN 3292   2.637   3.142   1.004
 1645WNA     DN 3293   2.678   3.015   1.109
 1646WNA     WN 3294   6.151   4.700   2.657
 1646WNA     DN 3295   6.038   4.821   2.694
 1647WNA     WN 3296   4.232   2.143   5.350
 1647WNA     DN 3297   4.152   2.052   5.470
 1648WNA     WN 3298   0.808   0.021   2.643
 1648WNA     DN 3299   0.924   0.119   2.719
 1649WNA     WN 3300   3.638   5.463   3.612
 1649WNA     DN 3301   3.533   5.412   3.736
 1650WNA     WN 3302   2.133   0.699   4.306
 1650WNA     DN 3303   2.177   0.567   4.403
 1651WNA     WN 3304   2.701   1.569   0.755
 1651WNA     DN 3305   2.653   1.696   0.653
 1652WNA     WN 3306   6.059   5.524   1.183
 1652WNA     DN 3307   5.908   5.531   1.105
 1653WNA     WN 3308   4.959   2.006   2.008
 1653WNA     DN 3309   5.095   1.922   1.950
 1654WNA     WN 3310   1.916   6.225   1.988
 1654WNA     DN 3311   2.018   6.099   2.040
 1655WNA     WN 3312   3.865   1.247   3.481
 1655WNA     DN 3313   3.757   1.222   3.352
 1656WNA     WN 3314   5.851   1.471   3.585
 1656WNA     DN 3315   5.769   1.616   3.552
 1657WNA     WN 3316   1.424   4.832   6.006
 1657WNA     DN 3317   1.476   4.704   5.907
 1658WNA     WN 3318   5.460   6.194   5.345
 1658WNA     DN 3319   5.291   6.178   5.336
 1659WNA     WN 3320   0.899   0.277   0.453
 1659WNA     DN 3321   1.039   0.321   0.538
 1660WNA     WN 3322   2.189   4.800   4.912
 1660WNA     DN 3323   2.237   4.962   4.895
 1661WNA     WN 3324   5.682   5.432   1.712
 1661WNA     DN 3325   5.525   5.481   1.753
 1662WNA     WN 3326   5.209   4.769   1.904
 1662WNA     DN 3327   5.288   4.837   1.769
 1663WNA     WN 3328   0.734   3.483   0.814
 1663WNA     DN 3329   0.888   3.494   0.884
 1664WNA     WN 3330   0.694   4.801   3.069
 1664WNA     DN 3331   0.600   4.746   2.938
 1665WNA     WN 3332   4.205   1.822   3.304
 1665WNA     DN 3333   4.284   1.710   3.204
 1666WNA     WN 3334   5.491   3.631   5.800
 1666WNA     DN 3335   5.518   3.778   5.880
 1667WNA     WN 3336   1.064   3.520   4.998
 1667WNA     DN 3337   1.009   3.675   5.039
 1668WNA     WN 3338   0.373   0.815   3.236
 1668WNA     DN 3339   0.299   0.956   3.176
 1669WNA     WN 3340   2.298   3.906   5.568
 1669WNA     DN 3341   2.242   3.919   5.408
 1670WNA     WN 3342   4.676   3.307   3.087
 1670WNA     DN 3343   4.666   3.296   3.256
 1671WNA     WN 3344   3.969   0.199   4.682
 1671WNA     DN 3345   4.132   0.240   4.708
 1672WNA     WN 3346   2.314   1.431   3.886
 1672WNA     DN 3347   2.269   1.497   3.736
 1673WNA     WN 3348   0.826   1.777   0.157
 1673WNA     DN 3349   0.834   1.607   0.149
 1674WNA     WN 3350   5.873   3.171   0.900
 1674WNA     DN 3351   5.900   3.225   1.059
 1675WNA     WN 3352   5.703   4.098   5.831
 1675WNA     DN 3353   5.870   4.092   5.861
 1676WNA     WN 3354   2.054   1.355   5.116
 1676WNA     DN 3355   1.897   1.358   5.051
 1677WNA     WN 3356   4.796   0.521   3.287
 1677WNA     DN 3357   4.887   0.457   3.158
 1678WNA     WN 3358   3.661   1.638   5.886
 1678WNA     DN 3359   3.718   1.624   5.726
 1679WNA     WN 3360   0.508   3.670   1.229
 1679WNA     DN 3361   0.471   3.796   1.337
 1680WNA     WN 3362   4.108   4.651   5.665
 1680WNA     DN 3363   4.144   4.761   5.790
 1681WNA     WN 3364   1.901   0.773   1.596
 1681WNA     DN 3365   2.004   0.891   1.530
 1682WNA     WN 3366   1.528   3.498   5.171
 1682WNA     DN 3367   1.475   3.346   5.116
 1683WNA     WN 3368   3.389   2.068   3.703
 1683WNA     DN 3369   3.312   2.218   3.680
 1684WNA     WN 3370   1.743   4.055   2.732
 1684WNA     DN 3371   1.665   3.956   2.618
 1685WNA     WN 3372   2.928   1.653   3.063
 1685WNA     DN 3373   3.056   1.543   3.083
 1686WNA     WN 3374   0.827   1.763   3.880
 1686WNA     DN 3375   0.685   1.844   3.834
 1687WNA     WN 3376   3.247   4.879   1.390
 1687WNA     DN 3377   3.375   4.987   1.362
 1688WNA     WN 3378   0.217   0.316   1.216
 1688WNA     DN 3379   0.328   0.358   1.095
 1689WNA     WN 3380   5.970   5.823   4.045
 1689WNA     DN 3381   6.074   5.923   3.955
 1690WNA     WN 3382   3.091   3.869   1.861
 1690WNA     DN 3383   2.997   3.814   1.730
 1691WNA     WN 3384   3.348   4.690   0.088
 1691WNA     DN 3385   3.215   4.666  -0.015
 1692WNA     WN 3386   3.660   2.276   1.558
 1692WNA     DN 3387   3.691   2.251   1.723
 1693WNA     WN 3388   2.140   3.305   5.835
 1693WNA     DN 3389   2.135   3.431   5.721
 1694WNA     WN 3390   2.157   5.281   5.773
 1694WNA     DN 3391   2.259   5.318   5.904
 1695WNA     WN 3392   5.540   0.324   3.944
 1695WNA     DN 3393   5.509   0.290   3.780
 1696WNA     WN 3394   0.727   4.882   2.224
 1696WNA     DN 3395   0.742   4.762   2.344
 1697WNA     WN 3396   2.309   0.669   3.791
 1697WNA     DN 3397   2.384   0.818   3.759
 1698WNA     WN 3398   1.528   1.095   2.837
 1698WNA     DN 3399   1.407   1.148   2.730
 1699WNA     WN 3400   0.669   0.778   0.421
 1699WNA     DN 3401   0.767   0.865   0.530
 1700WNA     WN 3402   3.470   0.874   5.128
 1700WNA     DN 3403   3.554   0.733   5.083
 1701WNA     WN 3404   2.443   4.333   4.676
 1701WNA     DN 3405   2.520   4.291   4.822
 1702WNA     WN 3406   1.177   3.064   4.174
 1702WNA     DN 3407   1.344   3.093   4.159
 1703WNA     WN 3408   3.023   6.142   1.022
 1703WNA     DN 3409   3.116   6.121   0.881
 1704WNA     WN 3410   3.971   2.797   0.748
 1704WNA     DN 3411   3.886   2.702   0.861
 1705WNA     WN 3412   0.732   3.338   2.561
 1705WNA     DN 3413   0.577   3.281   2.523
 1706WNA     WN 3414   5.385   5.950   6.118
 1706WNA     DN 3415   5.328   5.943   5.958
 1707WNA     WN 3416   3.866   3.620   1.476
 1707WNA     DN 3417   3.738   3.711   1.541
 1708WNA     WN 3418   3.153   2.794   5.817
 1708WNA     DN 3419   3.135   2.899   5.684
 1709WNA     WN 3420   2.961   3.670   4.172
 1709WNA     DN 3421   2.891   3.601   4.033
 1710WNA     WN 3422   2.536   4.484   2.585
 1710WNA     DN 3423   2.516   4.632   2.666
 1711WNA     WN 3424   4.641   2.328   1.222
 1711WNA     DN 3425   4.493   2.325   1.306
 1712WNA     WN 3426   6.190   1.507   4.151
 1712WNA     DN 3427   6.149   1.597   4.013
 1713WNA     WN 3428   4.521   2.094   2.393
 1713WNA     DN 3429   4.375   2.178   2.419
 1714WNA     WN 3430   5.023   3.733   0.553
 1714WNA     DN 3431   4.930   3.804   0.676
 1715WNA     WN 3432   1.326   1.183   4.355
 1715WNA     DN 3433   1.299   1.331   4.275
 1716WNA     WN 3434   4.179   0.831   4.322
 1716WNA     DN 3435   4.046   0.880   4.228
 1717WNA     WN 3436   5.005   5.883   1.581
 1717WNA     DN 3437   5.120   5.846   1.462
 1718WNA     WN 3438   0.883   1.233   2.229
 1718WNA     DN 3439   0.942   1.078   2.192
 1719WNA     WN 3440   2.992   3.416   4.600
 1719WNA     DN 3441   2.878   3.305   4.659
 1720WNA     WN 3442   5.563   5.644   4.271
 1720WNA     DN 3443   5.467   5.547   4.170
 1721WNA     WN 3444   0.423   1.047   2.068
 1721WNA     DN 3445   0.474   1.201   2.018
 1722WNA     WN 3446   1.836   5.656   2.105
 1722WNA     DN 3447   1.905   5.790   2.027
 1723WNA     WN 3448   1.288   3.166   1.231
 1723WNA     DN 3449   1.190   3.066   1.134
 1724WNA     WN 3450   2.293   2.312   1.999
 1724WNA     DN 3451   2.308   2.359   1.836
 1725WNA     WN 3452   0.790   3.020   3.903
 1725WNA     DN 3453   0.796   3.190   3.913
 1726WNA     WN 3454   0.897   2.991   0.025
 1726WNA     DN 3455   1.060   3.038   0.032
 1727WNA     WN 3456   2.660   2.339   0.646
 1727WNA     DN 3457   2.675   2.505   0.611
 1728WNA     WN 3458   2.263   5.899   2.263
 1728WNA     DN 3459   2.301   5.970   2.413
 1729WNA     WN 3460   6.028   5.900   4.731
 1729WNA     DN 3461   5.968   5.765   4.647
 1730WNA     WN 3462   2.479   3.214   3.751
 1730WNA     DN 3463   2.373   3.248   3.880
 1731WNA     WN 3464   2.872   0.146   4.328
 1731WNA     DN 3465   3.035   0.193   4.335
 1732WNA     WN 3466   0.396   2.080   1.361
 1732WNA     DN 3467   0.509   2.187   1.293
 1733WNA     WN 3468   0.968   3.207   0.469
 1733WNA     DN 3469   1.094   3.154   0.569
 1734WNA     WN 3470   3.781   5.553   5.128
 1734WNA     DN 3471   3.726   5.707   5.174
 1735WNA     WN 3472   2.634   6.140   2.375
 1735WNA     DN 3473   2.604   6.156   2.542
 1736WNA     WN 3474   6.070   1.992   6.169
 1736WNA     DN 3475   5.992   1.893   6.055
 1737WNA     WN 3476   5.068   5.643   2.149
 1737WNA     DN 3477   4.926   5.698   2.074
 1738WNA     WN 3478   1.674   0.258   5.250
 1738WNA     DN 3479   1.540   0.288   5.150
 1739WNA     WN 3480   3.065   5.079   6.133
 1739WNA     DN 3481   3.006   4.955   6.032
 1740WNA     WN 3482   4.131   0.127   5.170
 1740WNA     DN 3483   4.035   0.066   5.296
 1741WNA     WN 3484   1.098   2.658   1.241
 1741WNA     DN 3485   1.211   2.533   1.222
 1742WNA     WN 3486   0.331   3.607   5.210
 1742WNA     DN 3487   0.409   3.661   5.069
 1743WNA     WN 3488   0.545   5.242   0.124
 1743WNA     DN 3489   0.418   5.331   0.193
 1744WNA     WN 3490   0.485   4.320   5.292
 1744WNA     DN 3491   0.337   4.385   5.345
 1745WNA     WN 3492   6.182   2.844   2.585
 1745WNA     DN 3493   6.232   2.725   2.696
 1746WNA     WN 3494   1.820   3.016   0.522
 1746WNA     DN 3495   1.827   2.847   0.507
 1747WNA     WN 3496   3.193   6.147   5.285
 1747WNA     DN 3497   3.276   6.107   5.142
 1748WNA     WN 3498   3.086   1.600   2.290
 1748WNA     DN 3499   3.051   1.689   2.149
 1749WNA     WN 3500   5.513   2.125   0.450
 1749WNA     DN 3501   5.428   2.119   0.303
 1750WNA     WN 3502   5.197   2.601   1.231
 1750WNA     DN 3503   5.306   2.587   1.101
 1751WNA     WN 3504   1.917   1.465   2.186
 1751WNA     DN 3505   2.008   1.401   2.057
 1752WNA     WN 3506   3.543   3.012   2.518
 1752WNA     DN 3507   3.508   3.048   2.680
 1753WNA     WN 3508   0.406   3.943   3.525
 1753WNA     DN 3509   0.560   3.882   3.488
 1754WNA     WN 3510   2.188   0.080   6.080
 1754WNA     DN 3511   2.292  -0.050   6.044
 1755WNA     WN 3512   2.580   3.757   1.830
 1755WNA     DN 3513   2.491   3.901   1.848
 1756WNA     WN 3514   4.668   4.323   5.534
 1756WNA     DN 3515   4.792   4.333   5.650
 1757WNA     WN 3516   3.792   6.070   1.777
 1757WNA     DN 3517   3.798   5.968   1.913
 1758WNA     WN 3518   2.092   2.506   3.222
 1758WNA     DN 3519   2.074   2.416   3.079
 1759WNA     WN 3520   2.908   4.781   2.832
 1759WNA     DN 3521   2.884   4.949   2.826
 1760WNA     WN 3522   5.143   4.521   2.371
 1760WNA     DN 3523   5.008   4.419   2.353
 1761WNA     WN 3524   5.373   1.315   5.346
 1761WNA     DN 3525   5.520   1.368   5.279
 1762WNA     WN 3526   5.438   4.542   1.482
 1762WNA     DN 3527   5.389   4.451   1.347
 1763WNA     WN 3528   2.615   3.558   5.733
 1763WNA     DN 3529   2.652   3.723   5.751
 1764WNA     WN 3530   0.018   2.784   4.814
 1764WNA     DN 3531  -0.090   2.683   4.730
 1765WNA     WN 3532   0.027   1.736   1.155
 1765WNA     DN 3533  -0.119   1.674   1.093
 1766WNA     WN 3534   5.138   1.674   5.678
 1766WNA     DN 3535   5.263   1.595   5.594
 1767WNA     WN 3536   3.319   1.035   2.313
 1767WNA     DN 3537   3.479   1.021   2.369
 1768WNA     WN 3538   1.474   0.335   1.798
 1768WNA     DN 3539   1.337   0.303   1.893
 1769WNA     WN 3540   5.761   5.342   5.126
 1769WNA     DN 3541   5.851   5.446   5.226
 1770WNA     WN 3542   0.917   2.116   3.528
 1770WNA     DN 3543   1.011   1.999   3.447
 1771WNA     WN 3544   2.347   5.613   1.854
 1771WNA     DN 3545   2.342   5.569   1.690
 1772WNA     WN 3546   5.473   1.324   2.114
 1772WNA     DN 3547   5.386   1.285   2.255
 1773WNA     WN 3548   2.502   2.725   1.084
 1773WNA     DN 3549   2.554   2.873   1.149
 1774WNA     WN 3550   1.317   1.178   1.860
 1774WNA     DN 3551   1.246   1.048   1.776
 1775WNA     WN 3552   1.391   3.193   0.769
 1775WNA     DN 3553   1.506   3.202   0.645
 1776WNA     WN 3554   2.099   4.660   1.161
 1776WNA     DN 3555   2.002   4.799   1.146
 1777WNA     WN 3556   5.480   0.887   1.924
 1777WNA     DN 3557   5.336   0.867   1.837
 1778WNA     WN 3558   1.755   1.535   4.267
 1778WNA     DN 3559   1.749   1.401   4.371
 1779WNA     WN 3560   0.234   4.380   2.202
 1779WNA     DN 3561   0.150   4.517   2.146
 1780WNA     WN 3562   1.670   4.415   0.885
 1780WNA     DN 3563   1.679   4.258   0.820
 1781WNA     WN 3564   2.303   6.023   1.663
 1781WNA     DN 3565   2.318   5.881   1.571
 1782WNA     WN 3566   1.806   0.466   4.720
 1782WNA     DN 3567   1.938   0.562   4.769
 1783WNA     WN 3568   1.045   5.206   6.003
 1783WNA     DN 3569   0.988   5.213   5.843
 1784WNA     WN 3570   2.857   2.662   5.371
 1784WNA     DN 3571   2.704   2.717   5.322
 1785WNA     WN 3572   4.258   5.037   3.977
 1785WNA     DN 3573   4.376   4.985   3.867
 1786WNA     WN 3574   0.370   0.881   1.054
 1786WNA     DN 3575   0.389   0.731   0.976
 1787WNA     WN 3576   4.169   1.810   2.070
 1787WNA     DN 3577   4.177   1.774   2.236
 1788WNA     WN 3578   4.902   3.764   3.690
 1788WNA     DN 3579   4.785   3.885   3.669
 1789WNA     WN 3580   2.177   4.262   2.277
 1789WNA     DN 3581   2.033   4.192   2.335
 1790WNA     WN 3582   2.249   5.454   3.713
 1790WNA     DN 3583   2.222   5.368   3.857
 1791WNA     WN 3584   1.472   3.286   2.162
 1791WNA     DN 3585   1.494   3.418   2.057
 1792WNA     WN 3586   4.632   2.995   1.383
 1792WNA     DN 3587   4.614   3.035   1.547
 1793WNA     WN 3588   0.993   3.892   0.627
 1793WNA     DN 3589   0.834   3.897   0.568
 1794WNA     WN 3590   1.689   1.258   4.713
 1794WNA     DN 3591   1.814   1.143   4.709
 1795WNA     WN 3592   1.671   3.595   1.181
 1795WNA     DN 3593   1.554   3.571   1.060
 1796WNA     WN 3594   1.377   2.869   5.561
 1796WNA     DN 3595   1.222   2.801   5.576
 1797WNA     WN 3596   5.823   1.282   5.006
 1797WNA     DN 3597   5.787   1.165   5.124
 1798WNA     WN 3598   3.889   1.498   0.664
 1798WNA     DN 3599   3.993   1.627   0.625
 1799WNA     WN 3600   5.027   0.523   0.811
 1799WNA     DN 3601   4.976   0.679   0.856
 1800WNA     WN 3602   1.603   3.614   0.689
 1800WNA     DN 3603   1.583   3.762   0.770
 1801WNA     WN 3604   0.882   2.130   1.219
 1801WNA     DN 3605   1.015   2.212   1.153
 1802WNA     WN 3606   4.284   5.385   5.326
 1802WNA     DN 3607   4.232   5.545   5.303
 1803WNA     WN 3608   0.509   2.905   2.515
 1803WNA     DN 3609   0.655   2.838   2.459
 1804WNA     WN 3610   2.548   5.457   1.003
 1804WNA     DN 3611   2.657   5.333   0.961
 1805WNA     WN 3612   5.906   6.102   2.703
 1805WNA     DN 3613   5.906   6.160   2.863
 1806WNA     WN 3614   0.333   2.378   2.191
 1806WNA     DN 3615   0.467   2.317   2.276
 1807WNA     WN 3616   4.678   4.426   6.105
 1807WNA     DN 3617   4.831   4.485   6.149
 1808WNA     WN 3618   2.777   1.442   5.323
 1808WNA     DN 3619   2.723   1.323   5.214
 1809WNA     WN 3620   3.592   3.470   2.786
 1809WNA     DN 3621   3.585   3.407   2.944
 1810WNA     WN 3622   5.000   1.112   1.498
 1810WNA     DN 3623   4.901   1.226   1.576
 1811WNA     WN 3624   4.540   5.858   0.389
 1811WNA     DN 3625   4.700   5.858   0.333
 1812WNA     WN 3626   3.385   3.268   2.092
 1812WNA     DN 3627   3.254   3.375   2.072
 1813WNA     WN 3628   0.896   4.174   3.382
 1813WNA     DN 3629   0.933   4.070   3.253
 1814WNA     WN 3630   0.511   1.556   4.934
 1814WNA     DN 3631   0.548   1.659   4.804
 1815WNA     WN 3632   5.108   5.534   4.851
 1815WNA     DN 3633   4.965   5.608   4.904
 1816WNA     WN 3634   6.022   0.226   0.973
 1816WNA     DN 3635   6.032   0.347   1.092
 1817WNA     WN 3636   4.263   1.727   5.669
 1817WNA     DN 3637   4.178   1.721   5.522
 1818WNA     WN 3638   4.762   2.037   5.541
 1818WNA     DN 3639   4.910   1.985   5.608
 1819WNA     WN 3640   3.320   4.223   2.191
 1819WNA     DN 3641   3.174   4.137   2.203
 1820WNA     WN 3642   0.496   2.693   4.158
 1820WNA     DN 3643   0.517   2.846   4.230
 1821WNA     WN 3644   4.051   1.000   0.680
 1821WNA     DN 3645   3.961   1.141   0.650
 1822WNA     WN 3646   0.500   1.989   1.885
 1822WNA     DN 3647   0.471   1.886   2.017
 1823WNA     WN 3648   1.604   2.717   4.187
 1823WNA     DN 3649   1.496   2.602   4.250
 1824WNA     WN 3650   3.780   4.198   1.270
 1824WNA     DN 3651   3.934   4.254   1.316
 1825WNA     WN 3652   5.936   5.071   5.904
 1825WNA     DN 3653   5.817   5.100   6.022
 1826WNA     WN 3654   2.524   1.170   4.190
 1826WNA     DN 3655   2.552   1.210   4.027
 1827WNA     WN 3656   2.596   5.427   1.499
 1827WNA     DN 3657   2.612   5.292   1.397
 1828WNA     WN 3658   1.856   6.054   5.302
 1828WNA     DN 3659   1.701   6.121   5.282
 1829WNA     WN 3660   1.765   5.826   4.940
 1829WNA     DN 3661   1.649   5.773   4.828
 1830WNA     WN 3662   0.068   1.864   1.685
 1830WNA     DN 3663   0.015   1.716   1.750
 1831WNA     WN 3664   3.093   1.700   4.659
 1831WNA     DN 3665   3.017   1.735   4.511
 1832WNA     WN 3666   2.465   0.200   0.242
 1832WNA     DN 3667   2.348   0.310   0.186
 1833WNA     WN 3668   1.336   5.280   0.700
 1833WNA     DN 3669   1.427   5.423   0.712
 1834WNA     WN 3670   4.129   1.892   6.127
 1834WNA     DN 3671   4.228   1.778   6.048
 1835WNA     WN 3672   1.295   3.813   3.600
 1835WNA     DN 3673   1.204   3.942   3.537
 1836WNA     WN 3674   1.521   2.753   5.013
 1836WNA     DN 3675   1.671   2.724   5.089
 1837WNA     WN 3676   5.644   4.383   2.958
 1837WNA     DN 3677   5.555   4.436   2.823
 1838WNA     WN 3678   2.851   1.470   3.909
 1838WNA     DN 3679   2.697   1.532   3.873
 1839WNA     WN 3680   0.180   3.585   1.759
 1839WNA     DN 3681   0.069   3.696   1.824
 1840WNA     WN 3682   1.957   3.096   4.182
 1840WNA     DN 3683   2.042   2.988   4.083
 1841WNA     WN 3684   5.485   5.367   1.159
 1841WNA     DN 3685   5.493   5.331   1.325
 1842WNA     WN 3686   1.961   3.263   0.013
 1842WNA     DN 3687   1.828   3.219   0.110
 1843WNA     WN 3688   0.517   3.501   3.770
 1843WNA     DN 3689   0.351   3.491   3.807
 1844WNA     WN 3690   2.608   2.877   5.827
 1844WNA     DN 3691   2.569   3.042   5.817
 1845WNA     WN 3692   5.682   5.082   2.742
 1845WNA     DN 3693   5.653   5.248   2.765
 1846WNA     WN 3694   3.239   0.357   0.723
 1846WNA     DN 3695   3.156   0.253   0.618
 1847WNA     WN 3696   5.159   5.491   6.125
 1847WNA     DN 3697   5.143   5.527   6.290
 1848WNA     WN 3698   0.883   1.213   0.300
 1848WNA     DN 3699   0.931   1.196   0.138
 1849WNA     WN 3700   1.001   4.574   1.848
 1849WNA     DN 3701   0.916   4.568   1.701
 1850WNA     WN 3702   4.551   3.556   5.165
 1850WNA     DN 3703   4.470   3.593   5.310
 1851WNA     WN 3704   4.943   1.488   0.829
 1851WNA     DN 3705   4.775   1.510   0.836
 1852WNA     WN 3706   2.025   3.597   2.691
 1852WNA     DN 3707   1.857   3.583   2.712
 1853WNA     WN 3708   3.967   3.146   2.826
 1853WNA     DN 3709   3.882   3.290   2.853
 1854WNA     WN 3710   1.001   5.780   2.771
 1854WNA     DN 3711   1.005   5.932   2.694
 1855WNA     WN 3712   5.770   1.227   4.028
 1855WNA     DN 3713   5.696   1.245   4.180
 1856WNA     WN 3714   1.340   0.744   1.599
 1856WNA     DN 3715   1.214   0.663   1.680
 1857WNA     WN 3716   1.606   4.139   2.309
 1857WNA     DN 3717   1.577   4.046   2.170
 1858WNA     WN 3718   4.073   4.572   0.894
 1858WNA     DN 3719   4.073   4.742   0.886
 1859WNA     WN 3720   4.066   5.539   4.465
 1859WNA     DN 3721   3.980   5.489   4.327
 1860WNA     WN 3722   5.930   1.108   4.538
 1860WNA     DN 3723   6.010   0.996   4.438
 1861WNA     WN 3724   3.120   1.019   3.972
 1861WNA     DN 3725   3.065   1.169   3.915
 1862WNA     WN 3726   1.885   5.123   6.184
 1862WNA     DN 3727   1.870   5.285   6.232
 1863WNA     WN 3728   2.207   2.536   5.592
 1863WNA     DN 3729   2.233   2.622   5.448
 1864WNA     WN 3730   5.170   0.343   5.359
 1864WNA     DN 3731   5.098   0.493   5.395
 1865WNA     WN 3732   1.085   5.061   5.489
 1865WNA     DN 3733   0.952   5.031   5.387
 1866WNA     WN 3734   1.436   3.159   3.010
 1866WNA     DN 3735   1.477   3.115   2.851
 1867WNA     WN 3736   0.579   1.899   5.330
 1867WNA     DN 3737   0.453   1.791   5.295
 1868WNA     WN 3738   4.512   2.665   2.347
 1868WNA     DN 3739   4.567   2.623   2.502
 1869WNA     WN 3740   3.899   5.436   0.967
 1869WNA     DN 3741   3.803   5.573   0.995
 1870WNA     WN 3742   1.288   6.184   3.437
 1870WNA     DN 3743   1.335   6.342   3.479
 1871WNA     WN 3744   0.809   0.817   3.399
 1871WNA     DN 3745   0.938   0.706   3.391
 1872WNA     WN 3746   3.095   2.242   5.455
 1872WNA     DN 3747   3.176   2.164   5.582
 1873WNA     WN 3748   5.046   1.939   1.030
 1873WNA     DN 3749   4.949   1.826   1.112
 1874WNA     WN 3750   3.398   6.105   0.604
 1874WNA     DN 3751   3.502   6.238   0.585
 1875WNA     WN 3752   2.422   1.461   2.969
 1875WNA     DN 3753   2.588   1.490   2.993
 1876WNA     WN 3754   3.607   4.179   1.820
 1876WNA     DN 3755   3.693   4.316   1.872
 1877WNA     WN 3756   2.964   2.740   0.833
 1877WNA     DN 3757   3.101   2.682   0.750
 1878WNA     WN 3758   0.875   6.225   3.139
 1878WNA     DN 3759   0.896   6.394   3.144
 1879WNA     WN 3760   5.799   2.358   0.091
 1879WNA     DN 3761   5.659   2.285   0.027
 1880WNA     WN 3762   3.503   4.904   2.751
 1880WNA     DN 3763   3.563   4.890   2.910
 1881WNA     WN 3764   1.858   1.434   5.921
 1881WNA     DN 3765   2.004   1.520   5.907
 1882WNA     WN 3766   2.665   1.470   3.418
 1882WNA     DN 3767   2.774   1.589   3.364
 1883WNA     WN 3768   5.054   3.562   6.001
 1883WNA     DN 3769   5.042   3.711   5.920
 1884WNA     WN 3770   1.753   3.192   2.632
 1884WNA     DN 3771   1.656   3.328   2.666
 1885WNA     WN 3772   3.233   0.281   1.227
 1885WNA     DN 3773   3.326   0.140   1.207
 1886WNA     WN 3774   2.928   5.661   3.352
 1886WNA     DN 3775   2.963   5.602   3.507
 1887WNA     WN 3776   5.956   3.698   4.967
 1887WNA     DN 3777   5.804   3.669   5.038
 1888WNA     WN 3778   5.235   0.946   6.167
 1888WNA     DN 3779   5.362   0.903   6.063
 1889WNA     WN 3780   3.467   6.037   1.118
 1889WNA     DN 3781   3.312   6.089   1.071
 1890WNA     WN 3782   2.779   4.135   2.215
 1890WNA     DN 3783   2.646   4.161   2.112
 1891WNA     WN 3784   4.980   2.168   2.716
 1891WNA     DN 3785   4.949   2.022   2.634
 1892WNA     WN 3786   0.926   6.191   4.701
 1892WNA     DN 3787   0.990   6.267   4.839
 1893WNA     WN 3788   5.046   1.440   1.970
 1893WNA     DN 3789   5.115   1.437   2.125
 1894WNA     WN 3790   3.612   5.222   1.535
 1894WNA     DN 3791   3.444   5.217   1.508
 1895WNA     WN 3792   2.993   3.649   2.251
 1895WNA     DN 3793   3.037   3.554   2.385
 1896WNA     WN 3794   5.271   2.113   5.550
 1896WNA     DN 3795   5.428   2.179   5.545
 1897WNA     WN 3796   3.157   0.679   3.658
 1897WNA     DN 3797   3.315   0.741   3.651
 1898WNA     WN 3798   5.013   6.218   0.728
 1898WNA     DN 3799   5.057   6.122   0.595
 1899WNA     WN 3800   4.232   3.307   0.215
 1899WNA     DN 3801   4.316   3.440   0.151
 1900WNA     WN 3802   4.619   5.543   4.507
 1900WNA     DN 3803   4.611   5.579   4.341
 1901WNA     WN 3804   5.274   4.303   3.323
 1901WNA     DN 3805   5.369   4.442   3.297
 1902WNA     WN 3806   4.445   4.739   2.603
 1902WNA     DN 3807   4.502   4.843   2.725
 1903WNA     WN 3808   3.736   4.209   2.453
 1903WNA     DN 3809   3.792   4.116   2.584
 1904WNA     WN 3810   2.962   2.315   5.008
 1904WNA     DN 3811   2.886   2.388   5.142
 1905WNA     WN 3812   2.123   4.399   5.366
 1905WNA     DN 3813   1.982   4.335   5.296
 1906WNA     WN 3814   3.860   1.288   4.455
 1906WNA     DN 3815   4.017   1.234   4.492
 1907WNA     WN 3816   2.710   5.149   5.759
 1907WNA     DN 3817   2.817   5.085   5.644
 1908WNA     WN 3818   6.154   0.498   5.929
 1908WNA     DN 3819   6.228   0.626   6.013
 1909WNA     WN 3820   3.487   1.426   2.615
 1909WNA     DN 3821   3.486   1.258   2.590
 1910WNA     WN 3822   1.530   2.701   0.944
 1910WNA     DN 3823   1.656   2.610   0.874
 1911WNA     WN 3824   3.741   3.152   4.216
 1911WNA     DN 3825   3.831   3.160   4.072
 1912WNA     WN 3826   2.743   4.922   1.280
 1912WNA     DN 3827   2.908   4.922   1.238
 1913WNA     WN 3828   4.330   4.219   1.222
 1913WNA     DN 3829   4.395   4.350   1.309
 1914WNA     WN 3830   4.294   0.429   1.322
 1914WNA     DN 3831   4.325   0.551   1.208
 1915WNA     WN 3832   5.128   4.356   2.843
 1915WNA     DN 3833   5.059   4.510   2.825
 1916WNA     WN 3834   4.436   4.701   3.077
 1916WNA     DN 3835   4.539   4.823   3.135
 1917WNA     WN 3836   3.549   2.645   6.164
 1917WNA     DN 3837   3.540   2.531   6.290
 1918WNA     WN 3838   1.032   1.368   5.728
 1918WNA     DN 3839   1.144   1.243   5.700
 1919WNA     WN 3840   4.657   5.191   5.014
 1919WNA     DN 3841   4.538   5.260   5.114
 1920WNA     WN 3842   1.517   0.729   5.670
 1920WNA     DN 3843   1.479   0.795   5.518
 1921WNA     WN 3844   3.424   2.170   4.388
 1921WNA     DN 3845   3.453   2.247   4.537
 1922WNA     WN 3846   3.196   0.296   1.743
 1922WNA     DN 3847   3.361   0.315   1.708
 1923WNA     WN 3848   3.643   0.133   5.032
 1923WNA     DN 3849   3.656   0.242   5.162
 1924WNA     WN 3850   2.546   1.992   3.846
 1924WNA     DN 3851   2.472   2.077   3.719
 1925WNA     WN 3852   1.808   0.623   3.764
 1925WNA     DN 3853   1.723   0.528   3.877
 1926WNA     WN 3854   3.867   0.159   3.190
 1926WNA     DN 3855   3.794   0.263   3.303
 1927WNA     WN 3856   4.013   2.364   6.152
 1927WNA     DN 3857   3.880   2.277   6.091
 1928WNA     WN 3858   3.563   3.137   5.935
 1928WNA     DN 3859   3.586   3.023   5.811
 1929WNA     WN 3860   2.470   3.505   0.619
 1929WNA     DN 3861   2.559   3.376   0.685
 1930WNA     WN 3862   6.138   2.981   3.527
 1930WNA     DN 3863   6.237   2.854   3.472
 1931WNA     WN 3864   0.763   2.595   0.275
 1931WNA     DN 3865   0.903   2.598   0.179
 1932WNA     WN 3866   0.713   3.302   5.327
 1932WNA     DN 3867   0.586   3.296   5.440
 1933WNA     WN 3868   1.583   2.542   1.945
 1933WNA     DN 3869   1.651   2.540   1.789
 1934WNA     WN 3870   0.884   3.986   6.172
 1934WNA     DN 3871   0.722   3.935   6.185
 1935WNA     WN 3872   1.902   6.074   1.024
 1935WNA     DN 3873   1.797   6.196   1.078
 1936WNA     WN 3874   3.547   1.260   0.336
 1936WNA     DN 3875   3.546   1.092   0.311
 1937WNA     WN 3876   5.268   2.876   4.448
 1937WNA     DN 3877   5.383   2.754   4.477
 1938WNA     WN 3878   3.531   0.373   5.989
 1938WNA     DN 3879   3.664   0.334   6.087
 1939WNA     WN 3880   5.653   0.404   5.219
 1939WNA     DN 3881   5.755   0.327   5.107
 1940WNA     WN 3882   4.764   4.114   0.861
 1940WNA     DN 3883   4.843   4.052   0.998
 1941WNA     WN 3884   4.910   3.343   2.646
 1941WNA     DN 3885   4.859   3.498   2.695
 1942WNA     WN 3886   1.605   5.201   3.109
 1942WNA     DN 3887   1.592   5.088   3.235
 1943WNA     WN 3888   4.850   3.242   5.680
 1943WNA     DN 3889   4.830   3.231   5.848
 1944WNA     WN 3890   3.214   3.632   5.478
 1944WNA     DN 3891   3.145   3.773   5.412
 1945WNA     WN 3892   5.639   4.761   0.251
 1945WNA     DN 3893   5.623   4.596   0.289
 1946WNA     WN 3894   3.446   0.502   3.289
 1946WNA     DN 3895   3.526   0.635   3.219
 1947WNA     WN 3896   2.759   1.940   2.162
 1947WNA     DN 3897   2.828   1.988   2.014
 1948WNA     WN 3898   2.962   3.132   3.829
 1948WNA     DN 3899   2.987   3.154   3.996
 1949WNA     WN 3900   1.111   0.738   0.199
 1949WNA     DN 3901   1.060   0.820   0.339
 1950WNA     WN 3902   3.894   2.163   4.465
 1950WNA     DN 3903   3.945   2.324   4.447
 1951WNA     WN 3904   2.896   3.236   1.944
 1951WNA     DN 3905   3.013   3.168   2.047
 1952WNA     WN 3906   4.744   1.421   3.835
 1952WNA     DN 3907   4.819   1.558   3.767
 1953WNA     WN 3908   4.892   2.340   6.010
 1953WNA     DN 3909   4.805   2.484   6.032
 1954WNA     WN 3910   3.730   4.067   4.682
 1954WNA     DN 3911   3.642   3.970   4.573
 1955WNA     WN 3912   6.200   4.818   0.417
 1955WNA     DN 3913   6.323   4.790   0.303
 1956WNA     WN 3914   3.604   5.040   1.081
 1956WNA     DN 3915   3.435   5.023   1.073
 1957WNA     WN 3916   4.588   5.044   1.226
 1957WNA     DN 3917   4.456   5.135   1.282
 1958WNA     WN 3918   4.717   3.114   2.211
 1958WNA     DN 3919   4.830   3.150   2.332
 1959WNA     WN 3920   5.518   4.819   1.010
 1959WNA     DN 3921   5.581   4.691   0.917
 1960WNA     WN 3922   4.941   0.760   5.320
 1960WNA     DN 3923   5.085   0.749   5.231
 1961WNA     WN 3924   0.987   4.257   4.258
 1961WNA     DN 3925   0.885   4.366   4.176
 1962WNA     WN 3926   0.568   2.788   4.955
 1962WNA     DN 3927   0.568   2.792   4.785
 1963WNA     WN 3928   1.322   5.466   2.182
 1963WNA     DN 3929   1.458   5.548   2.122
 1964WNA     WN 3930   4.310   2.998   3.785
 1964WNA     DN 3931   4.291   3.152   3.855
 1965WNA     WN 3932   2.121   3.283   2.272
 1965WNA     DN 3933   2.195   3.259   2.121
 1966WNA     WN 3934   1.177   3.514   2.545
 1966WNA     DN 3935   1.094   3.609   2.431
 1967WNA     WN 3936   5.234   1.082   4.901
 1967WNA     DN 3937   5.323   1.207   4.829
 1968WNA     WN 3938   0.018   2.778   2.103
 1968WNA     DN 3939   0.111   2.745   1.965
 1969WNA     WN 3940   5.029   5.922   3.398
 1969WNA     DN 3941   4.875   5.990   3.378
 1970WNA     WN 3942   4.639   2.272   5.026
 1970WNA     DN 3943   4.536   2.179   5.125
 1971WNA     WN 3944   2.209   0.786   0.725
 1971WNA     DN 3945   2.055   0.822   0.787
 1972WNA     WN 3946   1.220   4.416   2.248
 1972WNA     DN 3947   1.062   4.450   2.194
 1973WNA     WN 3948   1.348   4.021   3.135
 1973WNA     DN 3949   1.451   4.120   3.044
 1974WNA     WN 3950   1.009   4.538   5.216
 1974WNA     DN 3951   0.905   4.642   5.302
 1975WNA     WN 3952   4.630   3.046   0.220
 1975WNA     DN 3953   4.704   2.900   0.173
 1976WNA     WN 3954   0.500   4.083   0.309
 1976WNA     DN 3955   0.603   4.205   0.367
 1977WNA     WN 3956   0.284   2.270   5.720
 1977WNA     DN 3957   0.207   2.344   5.852
 1978WNA     WN 3958   1.069   3.463   3.891
 1978WNA     DN 3959   1.063   3.294   3.871
 1979WNA     WN 3960   4.195   6.076   2.943
 1979WNA     DN 3961   4.224   5.908   2.939
 1980WNA     WN 3962   3.570   4.651   2.322
 1980WNA     DN 3963   3.594   4.540   2.449
 1981WNA     WN 3964   3.328   2.616   5.131
 1981WNA     DN 3965   3.397   2.479   5.205
 1982WNA     WN 3966   4.401   2.717   1.070
 1982WNA     DN 3967   4.393   2.872   1.000
 1983WNA     WN 3968   5.771   4.936   4.289
 1983WNA     DN 3969   5.745   4.852   4.143
 1984WNA     WN 3970   0.571   4.672   4.946
 1984WNA     DN 3971   0.527   4.603   4.797
 1985WNA     WN 3972   5.090   3.171   4.902
 1985WNA     DN 3973   5.164   3.025   4.855
 1986WNA     WN 3974   4.632   4.490   4.844
 1986WNA     DN 3975   4.679   4.333   4.797
 1987WNA     WN 3976   3.876   5.033   4.463
 1987WNA     DN 3977   3.747   5.133   4.512
 1988WNA     WN 3978   4.177   5.367   5.902
 1988WNA     DN 3979   4.148   5.274   5.763
 1989WNA     WN 3980   4.461   2.645   6.087
 1989WNA     DN 3981   4.571   2.762   6.030
 1990WNA     WN 3982   1.269   1.929   0.035
 1990WNA     DN 3983   1.165   1.851   0.145
 1991WNA     WN 3984   4.904   2.887   5.252
 1991WNA     DN 3985   4.770   2.861   5.354
 1992WNA     WN 3986   6.117   5.977   3.575
 1992WNA     DN 3987   6.184   5.823   3.600
 1993WNA     WN 3988   1.642   5.070   4.237
 1993WNA     DN 3989   1.756   5.058   4.362
 1994WNA     WN 3990   0.708   0.397   4.537
 1994WNA     DN 3991   0.658   0.505   4.659
 1995WNA     WN 3992   1.271   2.067   2.783
 1995WNA     DN 3993   1.107   2.085   2.743
 1996WNA     WN 3994   1.902   3.827   5.931
 1996WNA     DN 3995   1.833   3.719   6.043
 1997WNA     WN 3996   2.139   0.538   3.257
 1997WNA     DN 3997   2.174   0.607   3.106
 1998WNA     WN 3998   3.324   2.987   2.961
 1998WNA     DN 3999   3.481   3.052   2.968
 1999WNA     WN 4000   5.713   5.711   0.168
 1999WNA     DN 4001   5.557   5.648   0.142
 2000WNA     WN 4002   1.443   1.658   2.249
 2000WNA     DN 4003   1.536   1.625   2.111
 2001WNA     WN 4004   2.179   5.062   0.738
 2001WNA     DN 4005   2.015   5.020   0.729
 2002WNA     WN 4006   4.986   1.072   4.117
 2002WNA     DN 4007   5.045   1.188   4.008
 2003WNA     WN 4008   1.511   3.757   1.929
 2003WNA     DN 4009   1.528   3.919   1.979
 2004WNA     WN 4010   4.578   1.085   0.773
 2004WNA     DN 4011   4.418   1.099   0.717
 2005WNA     WN 4012   2.868   3.595   2.768
 2005WNA     DN 4013   2.893   3.544   2.608
 2006WNA     WN 4014   5.908   1.468   2.816
 2006WNA     DN 4015   6.018   1.593   2.848
 2007WNA     WN 4016   4.655   4.309   2.732
 2007WNA     DN 4017   4.532   4.401   2.804
 2008WNA     WN 4018   6.040   5.243   2.462
 2008WNA     DN 4019   6.011   5.101   2.372
 2009WNA     WN 4020   3.783   5.966   5.338
 2009WNA     DN 4021   3.689   6.104   5.307
 2010WNA     WN 4022   6.226   4.252   3.695
 2010WNA     DN 4023   6.246   4.116   3.795
 2011WNA     WN 4024   1.015   0.461   2.407
 2011WNA     DN 4025   0.997   0.475   2.239
 2012WNA     WN 4026   4.929   2.655   2.640
 2012WNA     DN 4027   4.791   2.613   2.550
 2013WNA     WN 4028   1.009   1.368   0.983
 2013WNA     DN 4029   0.923   1.221   0.982
 2014WNA     WN 4030   5.579   4.912   5.600
 2014WNA     DN 4031   5.566   5.029   5.723
 2015WNA     WN 4032   1.126   2.199   0.384
 2015WNA     DN 4033   1.165   2.096   0.514
 2016WNA     WN 4034   0.577   5.148   1.638
 2016WNA     DN 4035   0.702   5.249   1.692
 2017WNA     WN 4036   5.927   5.169   0.172
 2017WNA     DN 4037   6.016   5.312   0.150
 2018WNA     WN 4038   0.874   3.973   2.919
 2018WNA     DN 4039   0.797   3.825   2.886
 2019WNA     WN 4040   2.645   1.935   4.913
 2019WNA     DN 4041   2.606   1.864   5.063
 2020WNA     WN 4042   1.460   5.792   3.644
 2020WNA     DN 4043   1.473   5.667   3.759
 2021WNA     WN 4044   3.470   0.645   5.625
 2021WNA     DN 4045   3.621   0.584   5.576
 2022WNA     WN 4046   3.198   6.051   4.133
 2022WNA     DN 4047   3.355   6.102   4.093
 2023H+     POS 4048   1.300   1.565   0.591
 2024H+     POS 4049   5.609   0.979   6.144
 2025H+     POS 4050   2.474   2.217   5.140
 2026H+     POS 4051   1.329   2.663   4.410
 2027H+     POS 4052   4.461   3.007   5.083
 2028H+     POS 4053   4.217   0.972   6.000
 2029H+     POS 4054   4.450   0.827   1.670
 2030H+     POS 4055   5.188   2.037   4.088
 2031H+     POS 4056   5.392   0.589   0.707
 2032H+     POS 4057   0.108  -0.110   1.889
 2033H+     POS 4058   1.568   2.435   0.572
 2034H+     POS 4059   3.377   0.699  -0.106
 2035H+     POS 4060   1.107   4.027   5.499
 2036H+     POS 4061   5.982   1.631   0.966
 2037H+     POS 4062   2.623   4.129   6.078
 2038H+     POS 4063   5.550   2.132   2.140
 2039H+     POS 4064   1.122   5.773   1.472
 2040H+     POS 4065   4.393   4.630   3.946
 2041H+     POS 4066   3.924   4.983   2.998
 2042H+     POS 4067   4.714   5.726   2.539
 2043H+     POS 4068   4.993   0.383   4.742
 2044H+     POS 4069   2.562   1.573   1.076
 2045H+     POS 4070   5.859   1.512   4.391
 2046H+     POS 4071   3.950   2.513   1.184
 2047H+     POS 4072   2.617   5.588   3.932
 2048H+     POS 4073   4.862   3.612   3.061
 2049H+     POS 4074   0.594   1.611   4.270
 2050H+     POS 4075   5.550   2.896   3.824
 2051H+     POS 4076   3.828   2.730   5.034
 2052H+     POS 4077   4.373   5.717   3.456
 2053H+     POS 4078   0.748   2.134   2.897
 2054H+     POS 4079   2.444   5.700   5.861
 2055H+     POS 4080   2.145   5.814   1.283
 2056H+     POS 4081   1.371   4.655   2.770
 2057H+     POS 4082   2.028   3.393   3.884
 2058H+     POS 4083   4.704   0.034   1.162
 2059H+     POS 4084   5.899   0.578   3.763
 2060H+     POS 4085   5.335   3.586   3.134
 2061H+     POS 4086   5.934   1.707   1.934
 2062H+     POS 4087   2.910   2.998   5.089
 2063H+     POS 4088   5.190   2.521   5.183
 2064H+     POS 4089   2.740   3.480   0.935
 2065H+     POS 4090   3.393   5.089   3.818
 2066H+     POS 4091   1.180   5.006   4.367
 2067H+     POS 4092   6.213   4.208   6.214
 2068H+     POS 4093   0.303   3.232   0.380
 2069H+     POS 4094   4.549   1.591   2.922
 2070H+     POS 4095   4.297   5.772   0.887
 2071H+     POS 4096   3.130   0.125   5.551
 2072H+     POS 4097   1.316   6.154   5.566
 2073H+     POS 4098   5.412   0.282   3.212
 2074H+     POS 4099   6.102   5.268   2.146
 2075H+     POS 4100   5.457   3.706   0.636
 2076H+     POS 4101   4.269   5.522   1.534
 2077H+     POS 4102   3.155   5.173   4.825
 2078H+     POS 4103   0.875   3.575   0.401
 2079H+     POS 4104   6.179   0.646   1.312
 2080H+     POS 4105   3.403   6.086   3.497
 2081H+     POS 4106   2.475   3.496   5.418
 2082H+     POS 4107   4.407   5.251   4.478
 2083H+     POS 4108   6.154   2.660   6.024
 2084H+     POS 4109   5.466   0.829   0.396
 2085H+     POS 4110   5.524   6.109   0.879
 2086H+     POS 4111   2.590   3.149   1.359
 2087H+     POS 4112   3.512   4.372   4.136
 2088H+     POS 4113   4.333   3.880   1.836
 2089H+     POS 4114   5.854   1.434   6.127
 2090H+     POS 4115   0.297   2.118   3.283
 2091H+     POS 4116   5.020   5.264   3.203
 2092H+     POS 4117   2.269   2.108   2.709
 2093H+     POS 4118   3.104   1.413   1.826
 2094H+     POS 4119   4.461   5.514   4.026
 2095H+     POS 4120   3.037   3.652   1.430
 2096H+     POS 4121   0.772   4.045   4.291
 2097H+     POS 4122   3.825   4.711   1.934
 2098H+     POS 4123   3.958   5.700   1.600
 2099H+     POS 4124   2.325   5.925   4.137
 2100H+     POS 4125   4.765   5.328   5.425
 2101H+     POS 4126   2.507   1.814   0.991
 2102H+     POS 4127   0.888   4.983   3.662
 2103H+     POS 4128   0.968   3.654   3.555
 2104H+     POS 4129   2.307   0.212   2.687
 2105H+     POS 4130   1.121   2.121   5.913
 2106H+     POS 4131   6.011   0.816   1.170
 2107H+     POS 4132   0.761   2.847   2.000
 2108H+     POS 4133   3.912   2.278   3.539
 2109H+     POS 4134   4.621   1.675   4.404
 2110H+     POS 4135   0.766   3.833   4.016
 2111H+     POS 4136   4.569   4.400   4.438
 2112H+     POS 4137   2.177   3.302   5.181
 2113H+     POS 4138   1.266   0.266   1.303
 2114H+     POS 4139   1.175   5.179   2.639
 2115H+     POS 4140   1.401   0.539   3.066
 2116H+     POS 4141   4.382   1.940   2.664
 2117H+     POS 4142   2.377   5.048   1.155
 2118H+     POS 4143   5.401   2.696   0.453
 2119H+     POS 4144   1.711   5.627   3.279
 2120H+     POS 4145   0.055   4.150   0.337
 2121H+     POS 4146   4.884   1.589   1.290
 2122H+     POS 4147   1.081   5.257   1.865
 2123H+     POS 4148   4.942   6.293   5.011
 2124H+     POS 4149   1.675   4.343   1.449
 2125H+     POS 4150  -0.002   1.256   3.702
 2126H+     POS 4151   0.068   5.774   5.614
 2127H+     POS 4152   4.235   5.370   2.225
 2128H+     POS 4153   4.582   4.098   4.893
 2129H+     POS 4154   1.661   6.131   3.021
 2130H+     POS 4155   3.749   3.141   3.821
 2131H+     POS 4156   2.749   3.140   5.562
 2132H+     POS 4157   1.501   0.186   0.428
 2133H+     POS 4158   5.189   0.566   0.259
 2134H+     POS 4159   4.467   5.113   0.797
 2135H+     POS 4160   0.824   3.773   5.116
 2136H+     POS 4161   3.090   4.010   0.960
 2137H+     POS 4162   0.228   2.113   0.377
 2138H+     POS 4163   4.810   1.157   3.256
 2139H+     POS 4164   5.886   6.021   0.992
 2140H+     POS 4165   2.241   2.332   0.396
 2141H+     POS 4166  -0.105   3.605   3.718
 2142H+     POS 4167   0.600   1.151   2.428
 2143H+     POS 4168   3.667   1.605   1.558
 2144H+     POS 4169   1.966   4.315   0.072
 2145H+     POS 4170   4.562   1.133   2.122
 2146H+     POS 4171   4.316   4.662   5.362
 2147H+     POS 4172   5.456   3.913   3.336
 2148H+     POS 4173   2.655   4.933   3.268
 2149H+     POS 4174   4.112   2.185   4.019
 2150H+     POS 4175   2.235   4.760   6.014
 2151H+     POS 4176   2.742   0.701   0.703
 2152H+     POS 4177   4.109   2.357   0.600
 2153H+     POS 4178   5.197   4.866   2.912
 2154H+     POS 4179   5.426   1.610   0.571
 2155H+     POS 4180   2.219   5.811   0.805
 2156H+     POS 4181   1.973   0.128   2.549
 2157H+     POS 4182   1.984   1.439   2.540
 2158H+     POS 4183   3.490   3.596   0.125
 2159H+     POS 4184   3.760   2.513   2.189
 2160H+     POS 4185   1.779   3.244   5.664
 2161H+     POS 4186   3.607   0.245   1.114
 2162H+     POS 4187   3.580   5.898   3.073
 2163H+     POS 4188   4.034   2.919   4.724
 2164H+     POS 4189   5.985   4.829   4.776
 2165H+     POS 4190   1.959   0.293   2.921
 2166H+     POS 4191   0.150   0.658   4.617
 2167H+     POS 4192   1.851   1.996   2.097
 2168H+     POS 4193   0.296   0.782   3.938
 2169H+     POS 4194   1.051   5.992   2.196
 2170H+     POS 4195   2.579   4.955   5.403
 2171H+     POS 4196   1.968   1.555   0.518
 2172H+     POS 4197   2.026   0.995   4.738
 2173H+     POS 4198   1.938   1.935   4.409
 2174H+     POS 4199   2.507   1.290   0.492
 2175H+     POS 4200   3.823   2.194   5.244
 2176H+     POS 4201   5.889   3.813   5.843
 2177H+     POS 4202   0.657   5.449   1.447
 2178H+     POS 4203   3.805   2.472   4.068
 2179H+     POS 4204   4.609   5.743   5.114
 2180H+     POS 4205   5.668   3.217   4.425
 2181H+     POS 4206   0.893   3.440   1.947
 2182H+     POS 4207   5.482   1.117   5.821
 2183H+     POS 4208   5.379   5.775   5.211
 2184H+     POS 4209   0.216   3.161   3.586
 2185H+     POS 4210   3.578   3.920   0.021
 2186H+     POS 4211   0.892   2.944   2.957
 2187H+     POS 4212   2.146   2.298   5.280
 2188H+     POS 4213   0.623   4.976   6.141
 2189H+     POS 4214   3.810   4.172   3.490
 2190H+     POS 4215   5.709   0.794   5.495
 2191H+     POS 4216   0.735   4.452   6.080
 2192H+     POS 4217   0.608   3.223   4.619
 2193H+     POS 4218   4.318   5.431   3.842
 2194H+     POS 4219   5.253   0.783   5.548
 2195H+     POS 4220   4.546   2.481   3.684
 2196H+     POS 4221   0.180   0.674   0.770
 2197H+     POS 4222   1.651   5.454   4.796
 2198H+     POS 4223   4.781   0.269   4.072
 2199H+     POS 4224   1.395   5.993   3.910
 2200H+     POS 4225   5.817   3.466   2.186
 2201H+     POS 4226   5.527   4.921   6.101
 2202H+     POS 4227   5.547   6.082   2.937
 2203H+     POS 4228   2.022   2.147   3.372
 2204H+     POS 4229   0.275   1.097   0.334
 2205H+     POS 4230   2.936   5.574   0.272
 2206H+     POS 4231   0.701   1.143   0.799
 2207H+     POS 4232   1.477   3.541   3.478
 2208H+     POS 4233   2.213   2.983   3.541
 2209H+     POS 4234   3.914   3.347   2.267
 2210H+     POS 4235   2.567   5.080   6.061
 2211H+     POS 4236   5.680   4.771   5.041
 2212H+     POS 4237   4.888   6.200   5.507
 2213H+     POS 4238   6.104   2.143   1.919
 2214H+     POS 4239   6.207   2.993   3.099
 2215H+     POS 4240   0.972   4.113   4.766
 2216H+     POS 4241   5.868   2.421   4.999
 2217H+     POS 4242   1.414   4.800   2.238
 2218H+     POS 4243   1.761   0.730   5.228
 2219H+     POS 4244   4.768   4.240   3.494
 2220H+     POS 4245   6.078   4.448   4.561
 2221H+     POS 4246   3.743   3.764   0.846
 2222H+     POS 4247   4.360   0.271   3.140
 2223H+     POS 4248   1.428   0.248   2.324
 2224H+     POS 4249   1.875   5.708   3.950
 2225H+     POS 4250   6.022   5.035   5.344
 2226H+     POS 4251   3.299   0.086   0.259
 2227H+     POS 4252   4.132   3.729   0.119
 2228H+     POS 4253   5.484   4.274  -0.013
 2229H+     POS 4254   3.943   0.774   1.624
 2230H+     POS 4255   5.351   5.225   4.024
 2231H+     POS 4256   3.143   5.762   3.669
 2232H+     POS 4257   6.270   1.854   4.372
 2233H+     POS 4258   3.037   2.731   1.808
 2234H+     POS 4259   6.093   3.640   1.663
 2235H+     POS 4260   1.792   2.557   6.112
 2236H+     POS 4261   5.564   2.523   4.363
 2237H+     POS 4262   2.157   1.426   3.293
 2238H+     POS 4263   4.861   0.739   2.965
 2239H+     POS 4264   4.163   3.143   2.322
 2240H+     POS 4265   1.570   2.391   2.819
 2241H+     POS 4266   4.418   1.961   4.656
 2242H+     POS 4267   3.100   5.074   0.568
 2243H+     POS 4268   5.881   2.783   5.829
 2244H+     POS 4269   3.686   0.023   5.443
 2245H+     POS 4270   4.871   4.201   0.278
 2246H+     POS 4271   0.437   6.190   4.481
 2247H+     POS 4272   5.312   5.940   0.298
 2248H+     POS 4273   3.528   5.125   5.086
 2249H+     POS 4274   5.944   2.567   3.259
 2250H+     POS 4275  -0.036   1.388   4.833
 2251H+     POS 4276   3.259   4.050   5.315
 2252H+     POS 4277   2.913   2.375   1.934
 2253H+     POS 4278   1.361   5.403   5.982
 2254H+     POS 4279   4.853   3.490   0.175
 2255H+     POS 4280   1.869   2.514   4.673
 2256H+     POS 4281   4.956   2.741   1.617
 2257H+     POS 4282   5.985   0.385   2.684
 2258H+     POS 4283   0.298   3.348   6.135
 2259H+     POS 4284   2.994   5.427   5.998
 2260H+     POS 4285   0.474   2.832   0.723
 2261H+     POS 4286   0.210   1.758   0.544
 2262H+     POS 4287   2.311   0.560   6.192
 2263H+     POS 4288   5.735   2.189   5.369
 2264H+     POS 4289   3.693   1.536   5.395
 2265H+     POS 4290   2.792   4.519   6.114
 2266H+     POS 4291   4.129   3.485   5.293
 2267H+     POS 4292   4.452   1.411   4.375
 2268H+     POS 4293   0.520   4.909   5.602
 2269H+     POS 4294   2.707   6.261   3.926
 2270H+     POS 4295   1.405   6.246   2.737
 2271H+     POS 4296   3.994   2.195   1.392
 2272H+     POS 4297   3.030   0.624   1.350
 2273H+     POS 4298   1.182   3.995   1.915
 2274H+     POS 4299   1.836   3.834   3.250
 2275H+     POS 4300   1.283   1.891   4.877
 2276H+     POS 4301   0.387   0.148   2.401
 2277H+     POS 4302   4.418   3.866   0.553
 2278H+     POS 4303   1.336   5.314   1.333
 2279H+     POS 4304   2.998   2.527   4.200
 2280H+     POS 4305   2.839   5.539   5.689
 2281H+     POS 4306   1.930   4.382   4.430
 2282H+     POS 4307   3.383   0.970   1.390
 2283H+     POS 4308   5.056   5.411   1.774
 2284H+     POS 4309   4.997   5.181   0.885
 2285H+     POS 4310   3.593   2.051   0.907
 2286H+     POS 4311   2.830   6.069   0.475
 2287H+     POS 4312   0.980   4.898   2.837
 2288H+     POS 4313   3.079   4.308   3.126
 2289H+     POS 4314   1.422   3.147   1.784
 2290H+     POS 4315   2.507   0.867   3.002
 2291H+     POS 4316   2.676   2.564   5.037
 2292H+     POS 4317   5.668   3.663   5.171
 2293H+     POS 4318   1.175   0.397   5.657
 2294H+     POS 4319   1.172   1.517   3.303
 2295H+     POS 4320   1.754   3.714   2.505
 2296H+     POS 4321   4.627   0.639   0.392
 2297H+     POS 4322   4.954   4.759   3.451
 2298H+     POS 4323   2.991   1.905   5.964
 2299H+     POS 4324   4.331   4.919   1.827
 2300H+     POS 4325   0.849   3.386   2.966
 2301H+     POS 4326   4.079   3.845   5.875
 2302H+     POS 4327   4.048   5.243  -0.018
 2303H+     POS 4328   3.412   0.967   1.985
 2304H+     POS 4329   5.770   4.633   1.636
 2305H+     POS 4330   2.344   4.074   4.451
 2306H+     POS 4331   3.291   3.157   4.729
 2307H+     POS 4332   5.982   5.865   2.164
 2308H+     POS 4333   1.986   6.067   3.324
 2309H+     POS 4334   4.399   1.351   0.749
 2310H+     POS 4335   0.913   4.134   1.169
 2311H+     POS 4336   0.911   0.322   0.894
 2312H+     POS 4337   1.310   2.152   0.862
 2313H+     POS 4338   2.124   5.074   5.212
 2314H+     POS 4339   4.480   0.316   2.084
 2315H+     POS 4340   4.540   1.400   3.573
 2316H+     POS 4341   0.379   5.346   2.026
 2317H+     POS 4342   0.758   5.064   3.536
 2318H+     POS 4343   0.154   5.854   1.189
 2319H+     POS 4344   1.775   0.338   0.273
 2320H+     POS 4345   0.118   1.087   1.293
 2321H+     POS 4346   0.445   2.462   3.636
 2322H+     POS 4347   6.112   3.146   1.208
 2323H+     POS 4348   3.935   1.864   5.383
 2324H+     POS 4349   2.036   4.420   0.621
 2325H+     POS 4350   2.374   3.283   6.177
 2326H+     POS 4351   4.625   1.049   5.547
 2327H+     POS 4352   1.339   3.412   5.391
 2328H+     POS 4353   3.790   5.861   4.419
 2329H+     POS 4354   1.507   1.002   5.359
 2330H+     POS 4355   2.322   3.164   1.996
 2331H+     POS 4356   4.054   6.002   4.921
 2332H+     POS 4357   3.082   0.709   3.046
 2333H+     POS 4358   5.872   2.492   1.732
 2334H+     POS 4359   0.751   5.424   2.400
 2335H+     POS 4360   2.040   1.033   1.367
 2336H+     POS 4361   3.137   0.461   2.225
 2337H+     POS 4362   6.160   5.462   4.491
 2338H+     POS 4363   1.242   2.226   4.068
 2339H+     POS 4364   0.098   4.845   5.098
 2340H+     POS 4365   0.308   1.985   4.774
 2341H+     POS 4366   6.250   0.586   5.374
 2342H+     POS 4367   4.837   5.732   1.128
 2343H+     POS 4368   4.655   2.948   2.887
 2344H+     POS 4369   0.562   3.326   1.194
 2345H+     POS 4370   2.718   4.438   1.057
 2346H+     POS 4371   0.730   2.367   5.462
 2347H+     POS 4372   4.860   0.414   5.814
 2348H+     POS 4373   0.291   0.105   4.842
 2349H+     POS 4374   1.453   5.357   3.585
 2350H+     POS 4375   6.024   2.018   3.043
 2351H+     POS 4376   2.465   5.428   5.083
 2352H+     POS 4377   4.619   2.846   4.091
 2353H+     POS 4378   3.492   3.026   5.570
 2354H+     POS 4379   5.256   2.513   3.828
 2355H+     POS 4380   5.959   5.495   6.133
 2356H+     POS 4381   1.246   1.207   3.801
 2357H+     POS 4382   5.144   5.583   4.521
 2358H+     POS 4383   5.678   1.381   3.273
 2359H+     POS 4384   0.813   2.142   2.350
 2360H+     POS 4385   3.680   0.642   1.923
 2361H+     POS 4386   5.981   0.075   2.026
 2362H+     POS 4387   5.923   2.054   1.637
 2363H+     POS 4388   3.787   2.739   3.731
 2364H+     POS 4389   0.522   6.091   3.252
 2365H+     POS 4390   1.884   4.800   1.873
 2366H+     POS 4391   2.870   1.441   1.659
 2367H+     POS 4392   6.200   5.774   0.282
 2368H+     POS 4393   4.248   4.732   1.642
 2369H+     POS 4394   0.869   1.663   1.844
 2370H+     POS 4395   2.793   4.404   5.090
 2371H+     POS 4396   0.617   0.185   1.246
 2372H+     POS 4397   5.061   5.197   5.838
 2373H+     POS 4398   5.586   5.949   3.599
 2374H+     POS 4399   4.684   1.100   4.573
 2375H+     POS 4400   1.755   3.908   4.714
 2376H+     POS 4401   0.066   4.088   4.579
 2377H+     POS 4402   2.710   4.997   4.854
 2378H+     POS 4403   0.765   2.370   3.085
 2379H+     POS 4404   2.648   3.061   2.877
 2380H+     POS 4405   3.973   4.104   1.609
 2381H+     POS 4406   1.822   3.889   1.062
 2382H+     POS 4407   1.332   4.901   0.229
 2383H+     POS 4408   0.326   2.912   4.669
 2384H+     POS 4409   5.436   4.110   0.759
 2385H+     POS 4410   3.953   1.079   2.812
 2386H+     POS 4411   4.403   4.622   4.252
 2387H+     POS 4412   2.494   5.966   4.260
 2388H+     POS 4413   4.779   0.226   3.169
 2389H+     POS 4414   4.477   3.261   2.565
 2390H+     POS 4415   3.694   4.355   4.548
 2391H+     POS 4416   0.176   4.871   1.768
 2392H+     POS 4417   2.123   2.532   1.202
 2393H+     POS 4418   3.735   2.122   5.815
 2394H+     POS 4419   5.721   3.031   3.273
 2395H+     POS 4420   1.129   0.728   2.618
 2396H+     POS 4421   0.565   3.503   2.271
 2397H+     POS 4422   3.747   4.211   5.659
 2398H+     POS 4423   1.554   0.673   3.001
 2399H+     POS 4424   4.973   0.801   2.354
 2400H+     POS 4425   3.303   2.595   2.498
 2401H+     POS 4426   1.789   5.770   4.619
 2402H+     POS 4427   2.160   1.954   2.327
 2403H+     POS 4428   3.532   2.467   4.580
 2404H+     POS 4429   2.582   1.441   0.122
 2405H+     POS 4430   3.111   3.152   1.121
 2406H+     POS 4431   1.678   1.516   0.765
 2407H+     POS 4432   0.867   1.319   4.595
 2408H+     POS 4433   2.808   5.563   2.972
 2409H+     POS 4434   4.290   3.794   4.934
 2410H+     POS 4435   2.179   5.020   4.317
 2411H+     POS 4436   3.919   0.171   3.587
 2412H+     POS 4437   1.694   1.478   3.903
 2413H+     POS 4438   2.254   4.088   3.797
 2414H+     POS 4439   2.888   2.754  -0.136
 2415H+     POS 4440   3.671   5.915   2.107
 2416H+     POS 4441   2.452   2.318   3.669
 2417H+     POS 4442   0.243   4.754   0.690
 2418H+     POS 4443   5.543   0.381   5.794
 2419H+     POS 4444   3.970   0.459   1.805
 2420H+     POS 4445   3.845   0.151  -0.004
 2421H+     POS 4446   0.352   4.537   5.765
 2422H+     POS 4447   4.724   0.407   3.703
 2423H+     POS 4448   0.980   5.593   3.739
 2424H+     POS 4449   5.212   3.778   5.205
 2425H+     POS 4450   4.461   1.622   1.845
 2426H+     POS 4451   2.244   4.454   3.998
 2427H+     POS 4452   5.942   0.870   1.866
 2428H+     POS 4453   0.942   5.038   3.176
 2429H+     POS 4454   3.376   5.506   2.413
 2430H+     POS 4455   0.862   2.707   1.460
 2431H+     POS 4456   1.205   3.012   5.932
 2432H+     POS 4457   1.312   0.954   4.724
 2433H+     POS 4458   0.646   1.187   1.134
 2434H+     POS 4459   5.030   5.874   4.446
 2435H+     POS 4460   1.902   0.207   3.602
 2436H+     POS 4461   1.358   4.744   4.948
 2437H+     POS 4462   3.082   4.487   4.532
 2438H+     POS 4463   1.705   3.705   3.886
 2439H+     POS 4464   6.189   5.631   0.653
 2440H+     POS 4465   3.867   4.507   2.792
 2441H+     POS 4466   1.294   4.244   4.596
 2442H+     POS 4467   2.380   5.935   4.801
 2443H+     POS 4468   5.714   0.680   3.211
 2444H+     POS 4469   2.016   5.488   1.097
 2445H+     POS 4470   1.708   3.199   4.738
 2446H+     POS 4471   5.285   2.527   4.673
 2447H+     POS 4472   3.579   5.443   3.207
 2448H+     POS 4473   4.132   5.930   4.190
 2449H+     POS 4474   5.377   1.966   1.261
 2450H+     POS 4475   2.583   0.592   3.532
 2451H+     POS 4476   4.787   0.315   2.258
 2452H+     POS 4477  -0.017   0.411   3.540
 2453H+     POS 4478   1.130   1.901   5.099
 2454H+     POS 4479   3.459   5.980   5.033
 2455H+     POS 4480   3.022   5.326   4.356
 2456H+     POS 4481   2.451   1.695   6.044
 2457H+     POS 4482   0.781   2.148   6.066
 2458H+     POS 4483   5.574   0.425   1.276
 2459H+     POS 4484   3.048   4.022   0.607
 2460H+     POS 4485   1.227   2.693   3.782
 2461H+     POS 4486   2.422  -0.082   1.258
 2462H+     POS 4487   3.479   3.331   5.014
 2463H+     POS 4488   3.851   0.626   3.773
 2464H+     POS 4489   3.217   3.683   3.640
 2465H+     POS 4490   4.828   4.645   2.169
 2466H+     POS 4491   0.357   2.488   4.768
 2467H+     POS 4492   0.760   0.909   5.065
 2468H+     POS 4493   1.572   0.773   4.204
 2469H+     POS 4494   3.429   3.790   1.447
 2470H+     POS 4495   1.907   6.211   4.001
 2471H+     POS 4496   2.078   4.440   2.607
 2472H+     POS 4497   0.395   3.793   0.903
 2473H+     POS 4498   5.902   0.303   4.674
 2474H+     POS 4499   3.165   4.614   1.818
 2475H+     POS 4500   2.289   4.821   3.552
 2476H+     POS 4501   3.666   4.626   1.225
 2477H+     POS 4502   1.373   1.998   5.243
 2478H+     POS 4503   5.897   0.474   2.171
 2479H+     POS 4504   2.767   3.528   0.042
 2480H+     POS 4505   2.601   4.380   2.098
 2481H+     POS 4506   5.653   0.139   3.498
 2482H+     POS 4507   3.781   0.209   1.594
 2483H+     POS 4508   1.895   4.390   5.895
 2484H+     POS 4509   5.618   3.170   0.511
 2485H+     POS 4510   1.434   4.171   6.173
 2486H+     POS 4511   0.476   6.080   3.891
 2487H+     POS 4512   0.503   0.031   4.018
 2488H+     POS 4513   5.061   3.145   4.145
 2489H+     POS 4514   5.557   5.034   3.261
 2490H+     POS 4515   4.156   1.310   3.073
 2491H+     POS 4516   5.386   1.609   2.980
 2492H+     POS 4517   2.477   5.663   2.414
 2493H+     POS 4518   3.159   2.982   0.315
 2494H+     POS 4519   0.374   5.970   2.574
 2495H+     POS 4520   5.401   4.121   1.522
 2496H+     POS 4521   1.610   4.538   2.089
 2497H+     POS 4522   4.984   0.117   1.357
 2498H+     POS 4523   2.209   0.302   1.416
 2499H+     POS 4524   3.544   2.683   3.251
 2500H+     POS 4525   6.326   0.201   0.174
 2501H+     POS 4526   5.420   4.188   4.447
 2502H+     POS 4527   2.317   0.080   3.758
 2503H+     POS 4528   1.711   1.043   0.598
 2504H+     POS 4529   0.588   1.022   5.713
 2505H+     POS 4530   3.504   5.176   2.442
 2506H+     POS 4531   2.334   1.828   0.424
 2507H+     POS 4532   1.147   5.553   5.485
 2508H+     POS 4533   0.824   0.502   1.171
 2509H+     POS 4534   0.120   5.843   2.145
 2510H+     POS 4535   2.030   6.011   3.583
 2511H+     POS 4536   6.013   4.380   4.901
 2512H+     POS 4537   2.752   0.401   1.342
 2513H+     POS 4538   4.521   5.511   1.995
 2514H+     POS 4539   2.775   0.515   2.645
 2515H+     POS 4540   5.973   5.582   3.617
 2516H+     POS 4541   0.477   1.369   4.059
 2517H+     POS 4542   2.496   3.675   1.084
 2518H+     POS 4543   0.915   3.982   1.504
 2519H+     POS 4544   0.408   1.481   0.109
 2520H+     POS 4545   4.169   2.717   5.586
 2521H+     POS 4546   1.309   5.997   0.383
 2522H+     POS 4547   4.007   4.739   3.276
 2523H+     POS 4548   2.667   2.247   2.930
 2524H+     POS 4549   4.972   2.534   4.669
 2525H+     POS 4550   0.752   0.158   5.204
 2526H+     POS 4551   5.695   0.717   4.817
 2527H+     POS 4552   1.355   1.114   2.498
 2528H+     POS 4553   5.873   4.275   2.297
 2529H+     POS 4554   0.407   1.128   3.372
 2530H+     POS 4555   6.128   3.493   0.832
 2531H+     POS 4556   2.586   4.076   0.118
 2532H+     POS 4557   1.860   1.025   2.996
 2533H+     POS 4558   0.174   1.278   5.467
 2534H+     POS 4559   3.432   3.971   5.930
 2535H+     POS 4560   3.795   5.404   4.713
 2536H+     POS 4561   1.124   4.769   1.394
 2537H+     POS 4562   0.088   0.384   2.870
 2538H+     POS 4563   4.983   2.503   1.979
 2539H+     POS 4564   3.682   3.816   3.451
 2540H+     POS 4565   4.097   1.391   1.000
 2541H+     POS 4566   4.236   0.604   6.197
 2542H+     POS 4567   1.465   0.580   1.138
 2543H+     POS 4568   2.907   1.272   3.573
 2544H+     POS 4569   0.026   0.191   2.941
 2545H+     POS 4570   1.966   0.987   5.443
 2546H+     POS 4571   0.899   5.444   0.348
 2547H+     POS 4572   0.882   5.759   4.963
 2548H+     POS 4573   5.161   1.770   3.949
 2549H+     POS 4574   4.484   0.180   4.956
 2550H+     POS 4575   6.170   0.249   5.247
 2551H+     POS 4576   4.511   5.163   2.476
 2552H+     POS 4577   1.062   0.538   3.316
 2553H+     POS 4578   3.118   1.737   3.569
 2554H+     POS 4579   1.943   3.472   1.606
 2555H+     POS 4580   3.790   0.100   4.285
 2556H+     POS 4581   3.017   0.879   2.836
 2557H+     POS 4582   2.461   0.448   2.473
 2558H+     POS 4583   1.851   3.917   4.521
 2559H+     POS 4584   6.137   2.757   0.057
 2560H+     POS 4585   1.001   5.445   0.896
 2561H+     POS 4586   3.451   1.836   5.320
 2562H+     POS 4587   4.691   5.297   1.720
 2563H+     POS 4588   4.209   0.655   4.031
 2564H+     POS 4589   4.848   4.827   1.688
 2565H+     POS 4590   5.332   0.806   3.485
 2566H+     POS 4591   2.005   0.204   0.668
 2567H+     POS 4592   0.596   3.442   1.805
 2568H+     POS 4593   2.886   0.737   5.755
 2569H+     POS 4594   3.956   4.973   1.231
 2570H+     POS 4595   2.421   5.666   5.680
 2571H+     POS 4596   3.300   1.356   6.026
 2572H+     POS 4597   0.663   4.495   3.366
 2573H+     POS 4598   3.830   4.451   4.877
 2574H+     POS 4599   5.955   1.463   0.472
 2575H+     POS 4600   1.750   0.455   5.994
 2576H+     POS 4601   2.442   1.852   5.272
 2577H+     POS 4602   0.855   0.459   6.201
 2578H+     POS 4603   2.616   0.487   1.179
 2579H+     POS 4604   1.832   4.887   1.239
 2580H+     POS 4605   3.638   3.847   2.375
 2581H+     POS 4606   2.911   2.489   1.135
 2582H+     POS 4607   0.805   2.450   3.673
 2583H+     POS 4608   1.079   0.047   5.770
 2584H+     POS 4609   0.179   3.757   0.197
 2585H+     POS 4610   3.777   1.880   3.442
 2586H+     POS 4611   2.027   4.337   4.914
 2587H+     POS 4612   4.604   6.058   1.611
 2588H+     POS 4613   3.069   1.138   0.126
 2589H+     POS 4614   3.135   3.142   4.206
 2590H+     POS 4615   0.169   2.191   4.186
 2591H+     POS 4616   3.099   1.157   5.374
 2592H+     POS 4617   1.140   0.703   3.998
 2593H+     POS 4618   0.179   3.981   3.849
 2594H+     POS 4619   0.271   2.541   0.757
 2595H+     POS 4620   6.132   3.358   1.953
 2596H+     POS 4621   1.978   3.364   0.635
 2597H+     POS 4622   2.274   5.823   2.678
 2598H+     POS 4623   2.585   0.501   3.879
 2599H+     POS 4624   1.741   0.178   5.874
 2600H+     POS 4625   4.605   3.735   1.394
 2601H+     POS 4626   4.824   3.300   0.815
 2602H+     POS 4627   1.063   1.784   2.595
 2603H+     POS 4628   1.442   2.219   4.951
 2604H+     POS 4629   2.413   5.891   0.504
 2605H+     POS 4630   0.668   6.214   0.845
 2606H+     POS 4631   2.669   3.818   4.852
 2607H+     POS 4632   4.126   5.046   0.576
 2608H+     POS 4633   2.057   4.284   3.016
 2609H+     POS 4634   3.788   2.013   3.264
 2610H+     POS 4635   4.077   1.521   3.763
 2611H+     POS 4636   5.926   3.436   2.816
 2612H+     POS 4637   1.311   5.675   4.689
 2613H+     POS 4638   3.308   5.553   0.865
 2614H+     POS 4639   6.022   5.229   3.803
 2615H+     POS 4640   2.339   5.183   3.411
 2616H+     POS 4641   4.573   4.783   3.483
 2617H+     POS 4642   0.364   4.771   0.446
 2618H+     POS 4643   5.340   4.821   0.530
 2619H+     POS 4644   3.320   3.766   3.819
 2620H+     POS 4645   3.426   2.209   2.104
 2621H+     POS 4646   4.665   5.096   3.158
 2622H+     POS 4647   5.640   2.197   3.302
 2623H+     POS 4648   5.563   0.179   2.614
 2624H+     POS 4649   3.204   2.450   4.775
 2625H+     POS 4650   3.175   1.940   1.739
 2626H+     POS 4651   2.379   1.550   5.613
 2627H+     POS 4652   0.926   1.397   1.714
 2628H+     POS 4653   2.890   5.115   5.285
 2629H+     POS 4654   0.956   1.345   2.557
 2630H+     POS 4655   4.846   4.191   1.710
 2631H+     POS 4656   1.682   2.844   0.256
 2632H+     POS 4657   5.160   2.611   3.164
 2633H+     POS 4658   3.703   2.135   1.946
 2634H+     POS 4659   6.014   3.277   5.351
 2635H+     POS 4660   0.353   0.148   5.979
 2636H+     POS 4661   2.887   2.126   2.503
 2637H+     POS 4662   0.605   4.904   4.424
 2638H+     POS 4663   2.735   1.900   1.717
 2639H+     POS 4664   1.346   1.086   0.706
 2640H+     POS 4665   4.736   5.117   5.577
 2641H+     POS 4666   4.493   0.761   3.946
 2642H+     POS 4667   5.321   1.305   4.339
 2643H+     POS 4668   5.432   3.971   6.195
 2644H+     POS 4669   1.409   0.066   0.775
 2645H+     POS 4670   1.868   6.147   0.379
 2646H+     POS 4671   5.962   3.986   3.763
 2647H+     POS 4672   0.612   1.756   0.832
 2648H+     POS 4673   5.576   1.782   4.042
 2649H+     POS 4674   5.933   2.532   2.839
 2650H+     POS 4675   0.543   1.677   3.293
 2651H+     POS 4676   1.446   3.690   4.547
 2652H+     POS 4677   5.617   5.236   2.350
 2653H+     POS 4678   3.432   5.663   2.110
 2654H+     POS 4679   2.091   0.607   0.141
 2655H+     POS 4680   2.723   4.168   4.085
 2656H+     POS 4681   2.904   0.785   1.663
 2657H+     POS 4682   1.658   2.266   2.468
 2658H+     POS 4683   5.662   0.738   4.338
 2659H+     POS 4684   1.651   4.157   1.810
 2660H+     POS 4685   3.136   4.284   2.712
 2661H+     POS 4686   4.830   2.270   4.212
 2662H+     POS 4687   1.522   4.791   1.180
 2663H+     POS 4688   3.593   5.942   5.786
 2664H+     POS 4689   1.934   2.033   6.138
 2665H+     POS 4690   6.040   5.660   1.509
 2666H+     POS 4691   2.990   4.895   3.915
 2667H+     POS 4692   3.229   2.506   3.586
 2668H+     POS 4693   5.104   1.377   3.959
 2669H+     POS 4694   0.969   2.481   1.839
 2670H+     POS 4695   2.142   0.908   5.894
 2671H+     POS 4696   4.637   2.589   0.366
 2672H+     POS 4697   4.918   4.610   2.828
 2673H+     POS 4698   1.450   3.280   4.046
 2674H+     POS 4699   5.113   4.709   4.569
 2675H+     POS 4700   1.017   3.481   1.425
 2676H+     POS 4701   0.761   5.099   2.913
 2677H+     POS 4702   6.090   5.305   5.410
 2678H+     POS 4703   6.025   5.091   3.164
 2679H+     POS 4704   2.240   0.219   5.366
 2680H+     POS 4705   1.544   1.401   0.247
 2681H+     POS 4706   2.994   5.520   0.671
 2682H+     POS 4707   1.229   4.514   0.539
 2683H+     POS 4708   0.482   2.207   4.166
 2684H+     POS 4709   1.042   4.221   0.187
 2685H+     POS 4710   2.344   1.814   4.730
 2686H+     POS 4711   2.700   1.449   2.259
 2687H+     POS 4712   4.477   2.622   5.425
 2688H+     POS 4713   5.010   4.856  -0.026
 2689H+     POS 4714   0.482  -0.015   0.190
 2690H+     POS 4715   3.267   4.139   1.445
 2691H+     POS 4716   1.276   1.174   1.457
 2692H+     POS 4717   4.718   3.228   1.792
 2693H+     POS 4718   4.385   6.100   3.569
 2694H+     POS 4719   2.752   0.383   1.756
 2695H+     POS 4720   3.071   5.454   2.625
 2696H+     POS 4721   4.947   0.077   1.940
 2697H+     POS 4722   5.112   1.604   6.124
 2698H+     POS 4723   0.115   2.196   2.757
 2699H+     POS 4724   6.171   5.100   3.422
 2700H+     POS 4725   3.376   2.297   2.919
 2701H+     POS 4726   5.727   5.284   3.954
 2702H+     POS 4727   0.377   5.528   4.743
 2703H+     POS 4728   4.278   4.176   0.587
 2704H+     POS 4729   4.553   5.569   0.978
 2705H+     POS 4730   3.444   0.338   4.264
 2706H+     POS 4731   2.050   2.233   0.984
 2707H+     POS 4732   2.939   4.162   5.996
 2708H+     POS 4733   1.781   5.611   2.637
 2709H+     POS 4734   0.435   4.667   1.223
 2710H+     POS 4735   5.811   3.558   4.000
 2711H+     POS 4736   3.322   3.875   0.430
 2712H+     POS 4737   5.440   2.161   6.089
 2713H+     POS 4738   1.852   0.700   0.592
 2714H+     POS 4739   2.862   1.790   1.196
 2715H+     POS 4740   4.576   2.138   1.913
 2716H+     POS 4741   5.965   0.187   1.479
 2717H+     POS 4742   3.870   1.808   3.889
 2718H+     POS 4743   4.817   2.979   3.436
 2719H+     POS 4744   3.787   0.160   0.546
 2720H+     POS 4745   4.770   2.956   5.960
 2721H+     POS 4746   2.768   1.094   2.956
 2722H+     POS 4747   4.292   5.967   1.906
 2723H+     POS 4748   2.612   3.742   3.776
 2724H+     POS 4749   0.073   1.970   5.037
 2725H+     POS 4750   2.524   0.806   5.927
 2726H+     POS 4751   0.091   2.427   2.692
 2727H+     POS 4752  -0.103   6.166   4.152
 2728H+     POS 4753   2.963   5.698   4.358
 2729H+     POS 4754   0.318   4.285   3.986
 2730H+     POS 4755   3.768   5.105   5.308
 2731H+     POS 4756   5.058   0.180   5.722
 2732H+     POS 4757   4.418   5.767   5.417
 2733H+     POS 4758   1.018   1.265   3.447
 2734H+     POS 4759   0.466   2.140   0.426
 2735H+     POS 4760   5.933   1.530   5.458
 2736H+     POS 4761   2.901   4.474   0.465
 2737H+     POS 4762   1.766   0.452   1.049
 2738H+     POS 4763   6.140   2.569   0.908
 2739H+     POS 4764   2.590   2.445   5.854
 2740H+     POS 4765   2.610   1.857   4.222
 2741H+     POS 4766   1.797   0.909   3.421
 2742H+     POS 4767   4.096   3.980   2.044
 2743H+     POS 4768   5.612   0.053   5.003
 2744H+     POS 4769   2.142   3.741   0.394
 2745H+     POS 4770   0.889   2.370   0.668
 2746H+     POS 4771   5.806   5.955   1.341
 2747H+     POS 4772   1.157   2.632   4.282
 2748H+     POS 4773   5.424   5.961   1.759
 2749H+     POS 4774   2.617   5.873   0.755
 2750H+     POS 4775   3.460   4.296   4.986
 2751H+     POS 4776   1.221   4.362   0.817
 2752H+     POS 4777   2.877   4.889   1.675
 2753H+     POS 4778   3.912   3.761   0.572
 2754H+     POS 4779   0.508   2.844   0.209
 2755H+     POS 4780   3.812   4.854   4.132
 2756H+     POS 4781   6.047   4.420   0.772
 2757H+     POS 4782   4.934   6.097   2.022
 2758H+     POS 4783   6.272   4.484   3.129
 2759H+     POS 4784   1.699   5.096   0.985
 2760H+     POS 4785   4.383   4.565   0.720
 2761H+     POS 4786   4.030   1.789   2.405
 2762H+     POS 4787   0.662   2.169   1.738
 2763H+     POS 4788   2.579   2.823   0.696
 2764H+     POS 4789   4.670   6.067   2.422
 2765H+     POS 4790   0.895   0.496   5.927
 2766H+     POS 4791   4.015   0.123   0.970
 2767H+     POS 4792   5.281   1.787   4.302
 2768H+     POS 4793   2.360   2.500   2.923
 2769H+     POS 4794   3.347   1.720   0.188
 2770H+     POS 4795   0.347   1.177   6.007
 2771H+     POS 4796   1.489   0.772   0.233
 2772H+     POS 4797   1.830   2.709   3.693
 2773H+     POS 4798   2.797   2.421   4.331
 2774H+     POS 4799   1.584   2.571   1.606
 2775H+     POS 4800   5.633   5.622   0.941
 2776H+     POS 4801   3.024   0.614   4.326
 2777H+     POS 4802   4.547   3.103   4.743
 2778H+     POS 4803   5.670   1.822   5.724
 2779H+     POS 4804   5.760  -0.075   0.297
 2780H+     POS 4805   3.289   1.820   2.562
 2781H+     POS 4806   0.862   5.486   1.517
 2782H+     POS 4807   1.950   2.608   2.322
 2783H+     POS 4808   5.457   2.658   2.828
 2784H+     POS 4809   0.517   1.836   6.039
 2785H+     POS 4810   0.672   5.759   3.202
 2786H+     POS 4811   3.431   3.667   1.689
 2787H+     POS 4812   2.720   3.790   5.518
 2788H+     POS 4813   2.567   3.330   4.231
 2789H+     POS 4814   4.062   0.373   5.610
 2790H+     POS 4815  -0.042   0.920   4.089
 2791H+     POS 4816   2.599   0.856   3.762
 2792H+     POS 4817   0.684   4.521   4.471
 2793H+     POS 4818   6.070   2.811   5.226
 2794H+     POS 4819   5.752   1.705   0.019
 2795H+     POS 4820   2.390   4.153   2.634
 2796H+     POS 4821   2.239   5.345   0.165
 2797H+     POS 4822   4.808   0.893   4.879
 2798H+     POS 4823   2.095   5.433   2.668
 2799H+     POS 4824   3.488   5.336   0.158
 2800H+     POS 4825   5.909   4.003   1.187
 2801H+     POS 4826   3.201   2.454   1.029
 2802H+     POS 4827   0.568   5.360   5.485
 2803H+     POS 4828   0.232   4.914   3.803
 2804H+     POS 4829   4.267   0.147   4.501
 2805H+     POS 4830   1.488   2.264   1.554
 2806H+     POS 4831   5.135   2.587   0.431
 2807H+     POS 4832   5.075   3.782   1.872
 2808H+     POS 4833   0.850   2.517   2.623
 2809H+     POS 4834   5.948   2.973   2.032
 2810H+     POS 4835   5.942   3.295   0.266
 2811H+     POS 4836   4.209   4.142   3.368
 2812H+     POS 4837  -0.075   1.554   3.060
 2813H+     POS 4838   5.169   3.366   3.606
 2814H+     POS 4839   2.570   4.591   3.179
 2815H+     POS 4840   3.533   0.751   3.059
 2816H+     POS 4841   4.523   2.049   0.161
 2817H+     POS 4842   3.250   1.854   3.225
 2818H+     POS 4843   1.157   1.093   4.840
 2819H+     POS 4844   1.835   5.632   0.294
 2820H+     POS 4845   6.076   3.786   1.914
 2821H+     POS 4846   5.678   0.478   1.711
 2822H+     POS 4847   2.970   0.718   0.372
 2823H+     POS 4848   5.401   0.865   1.347
 2824H+     POS 4849   0.700   3.218   4.337
 2825H+     POS 4850   3.551   4.951   3.753
 2826H+     POS 4851   4.213   2.672   4.111
 2827H+     POS 4852   6.035   0.879   5.803
 2828H+     POS 4853   3.974   0.822   5.711
 2829H+     POS 4854   4.747   0.378   0.551
 2830H+     POS 4855   5.926   4.106   3.135
 2831H+     POS 4856   4.011   0.491   5.185
 2832H+     POS 4857   1.646   0.114   1.337
 2833H+     POS 4858   5.245   0.285   2.128
 2834H+     POS 4859   2.508   3.690   3.957
 2835H+     POS 4860   5.451   4.553   6.008
 2836H+     POS 4861   0.692   1.705   0.690
 2837H+     POS 4862   3.851   0.718   2.309
 2838H+     POS 4863   5.286   0.949   3.174
 2839H+     POS 4864   6.023   2.374   4.172
 2840H+     POS 4865   3.339   4.106   4.457
 2841H+     POS 4866   4.238   2.922   3.439
 2842H+     POS 4867   0.343   3.719   4.832
 2843H+     POS 4868   0.900   5.943   5.649
 2844H+     POS 4869   1.262   1.844   4.460
 2845H+     POS 4870   0.252   5.227   3.075
 2846H+     POS 4871   1.429   3.612   5.932
 2847H+     POS 4872   1.767   1.957   2.965
 2848H+     POS 4873   4.520   3.611   2.893
 2849H+     POS 4874   4.644   3.916   3.849
 2850H+     POS 4875   2.819   2.159   1.733
 2851H+     POS 4876   0.426   4.025   1.175
 2852H+     POS 4877   4.058   3.105   5.607
 2853H+     POS 4878   3.622   4.388   2.938
 2854H+     POS 4879   2.388   4.126   3.136
 2855H+     POS 4880   6.215   3.662   1.387
 2856H+     POS 4881   4.053   6.074   0.604
 2857H+     POS 4882   2.803   0.388   6.173
 2858H+     POS 4883   1.020   2.141   4.657
 2859H+     POS 4884   5.143   3.842   0.875
 2860H+     POS 4885   4.998   1.342   5.159
 2861H+     POS 4886   4.036   0.848   4.615
 2862H+     POS 4887   5.245   3.208   1.106
 2863H+     POS 4888   6.166   2.315   3.489
 2864H+     POS 4889   4.877   2.314   3.810
 2865H+     POS 4890   4.398   0.874   5.236
 2866H+     POS 4891   2.058   4.276   5.888
 2867H+     POS 4892   5.378   5.108   3.492
 2868H+     POS 4893   2.346   1.275   0.715
 2869H+     POS 4894   5.654   2.264   1.320
 2870H+     POS 4895   5.794   1.555   1.587
 2871H+     POS 4896   3.563   1.884   0.221
 2872H+     POS 4897   5.784   1.102   0.955
 2873H+     POS 4898   0.167   1.433   2.447
 2874H+     POS 4899   2.221   5.853  -0.117
 2875H+     POS 4900   3.616   4.650   0.357
 2876H+     POS 4901   1.265   2.292   3.670
 2877H+     POS 4902   3.172   1.195   0.960
 2878H+     POS 4903   2.758   6.171   2.795
 2879H+     POS 4904   2.051   2.226   4.622
 2880H+     POS 4905   4.101   5.687   6.231
 2881H+     POS 4906   5.665   4.263   3.914
 2882H+     POS 4907   0.822   3.664   5.662
 2883H+     POS 4908   6.005   3.287   5.989
 2884H+     POS 4909   2.365   5.444   4.584
 2885H+     POS 4910   2.676   5.138   1.819
 2886H+     POS 4911   4.989   4.262   5.258
 2887H+     POS 4912   5.230   4.631   3.874
 2888H+     POS 4913   3.941   2.700   1.588
 2889H+     POS 4914   1.700   2.915   5.463
 2890H+     POS 4915   1.902   3.841   1.586
 2891H+     POS 4916   3.115   5.306   1.789
 2892H+     POS 4917   2.489   6.031   6.291
 2893H+     POS 4918   1.443   4.769   4.334
 2894H+     POS 4919   4.231   2.343   1.925
 2895H+     POS 4920   5.699   4.293   0.516
 2896H+     POS 4921   3.958   0.576   2.786
 2897H+     POS 4922   3.568   3.900   2.864
 2898H+     POS 4923   4.655   0.652   4.529
 2899H+     POS 4924   4.123   4.275   0.279
 2900H+     POS 4925   2.694   1.290   4.473
 2901H+     POS 4926   5.446   2.457   6.090
 2902H+     POS 4927   2.493   2.932   3.993
 2903H+     POS 4928   3.046   0.299   4.771
 2904H+     POS 4929   0.629   4.574   0.511
 2905H+     POS 4930   3.805   4.409   0.812
 2906H+     POS 4931   3.718   6.098   0.004
 2907H+     POS 4932   4.760   5.667   5.807
 2908H+     POS 4933   4.719   3.171   3.601
 2909H+     POS 4934   1.021   0.055   5.228
 2910H+     POS 4935   3.478   1.907   5.053
 2911H+     POS 4936   1.948   3.828   0.195
 2912H+     POS 4937   3.566   0.893   4.367
 2913H+     POS 4938   4.630   3.940   5.961
 2914H+     POS 4939   3.599   5.644   6.102
 2915H+     POS 4940   2.689   2.446   0.236
 2916H+     POS 4941   3.424   0.594   0.404
 2917H+     POS 4942   4.740   4.584   0.200
 2918H+     POS 4943   0.981   3.164   1.019
 2919H+     POS 4944   3.936   3.208   1.661
 2920H+     POS 4945   1.764   4.557   3.797
 2921H+     POS 4946   3.486   0.707   1.576
 2922H+     POS 4947   3.248   0.161   3.146
 2923H+     POS 4948   4.524   1.126   1.349
 2924H+     POS 4949   3.377   1.642   3.832
 2925H+     POS 4950   3.148   2.506   6.085
 2926H+     POS 4951   5.972   3.147   2.327
 2927H+     POS 4952   2.914   2.546   2.910
 2928H+     POS 4953   4.518   0.578   4.697
 2929H+     POS 4954   3.841   5.128   3.423
 2930H+     POS 4955   2.105   4.936   4.025
 2931H+     POS 4956  -0.021   4.019   0.806
 2932H+     POS 4957   3.051   2.160   4.117
 2933H+     POS 4958   1.913   3.294   3.378
 2934H+     POS 4959   4.034   0.620   2.468
 2935H+     POS 4960   5.008   2.874   2.866
 2936H+     POS 4961   3.413   5.736   1.606
 2937H+     POS 4962   1.953   3.518   4.150
 2938H+     POS 4963   3.967   5.659   5.591
 2939H+     POS 4964   2.781   2.710   2.239
 2940H+     POS 4965   5.420   0.282   0.291
 2941H+     POS 4966   0.304   3.145   1.702
 2942H+     POS 4967   0.291   5.317   1.684
 2943H+     POS 4968   2.335   5.864   3.595
 2944H+     POS 4969   3.623   2.569   5.809
 2945H+     POS 4970   6.284   5.521   2.712
 2946H+     POS 4971   4.989   2.479   0.985
 2947H+     POS 4972  -0.019   0.837   5.625
 2948H+     POS 4973   5.432   4.420   0.472
 2949H+     POS 4974   5.132   5.113   2.619
 2950H+     POS 4975   5.967   5.917   6.196
 2951H+     POS 4976   6.074   0.165   5.754
 2952H+     POS 4977   2.329   1.265   2.026
 2953H+     POS 4978   0.248   3.223   5.538
 2954H+     POS 4979   5.662   5.775   2.941
 2955H+     POS 4980   5.978   2.033   2.555
 2956H+     POS 4981   4.789   1.479   5.726
 2957H+     POS 4982   3.189   4.718   3.156
 2958H+     POS 4983   5.119   4.637   0.708
 2959H+     POS 4984   0.805   0.428   1.844
 2960H+     POS 4985   2.478   3.869   0.727
 2961H+     POS 4986   4.310   4.723   4.685
 2962H+     POS 4987   2.792   5.707   2.072
 2963H+     POS 4988   1.444   5.937   1.093
 2964H+     POS 4989   5.207   5.106   5.176
 2965H+     POS 4990   5.935   6.019   3.034
 2966H+     POS 4991   0.394   2.950   3.047
 2967H+     POS 4992   0.800   4.480   1.313
 2968H+     POS 4993   4.221   4.831   0.202
 2969H+     POS 4994   4.039   3.655   4.652
 2970H+     POS 4995   2.431   3.742   2.463
 2971H+     POS 4996   1.049   1.623   1.431
 2972H+     POS 4997   0.324   0.458   0.023
 2973H+     POS 4998   5.922   0.331   0.528
 2974H+     POS 4999   2.847   5.249   3.851
 2975H+     POS 5000   1.488   0.943   2.003
 2976H+     POS 5001   3.986   1.233   4.907
 2977H+     POS 5002   0.191   5.967   1.649
 2978H+     POS 5003   1.096   1.935   0.630
 2979H+     POS 5004   0.413   5.993   0.277
 2980H+     POS 5005   6.303   5.603   4.962
 2981H+     POS 5006   3.474   1.137   0.910
 2982H+     POS 5007   5.873   4.074   5.543
 2983H+     POS 5008   4.014   1.067   3.993
 2984H+     POS 5009   4.098   6.292   5.791
 2985H+     POS 5010   2.386   5.053   2.009
 2986H+     POS 5011   0.976   4.604   5.822
 2987H+     POS 5012   0.851   4.196   2.509
 2988H+     POS 5013   5.113   3.203   2.177
 2989H+     POS 5014   0.581   4.213   5.673
 2990H+     POS 5015   5.211   0.105   3.461
 2991H+     POS 5016   4.448   3.316   0.734
 2992H+     POS 5017   3.073   3.194   5.841
 2993H+     POS 5018   1.247   1.794   5.765
 2994H+     POS 5019   4.047   5.333   4.113
 2995H+     POS 5020   4.337   5.291   0.588
 2996H+     POS 5021   4.283   0.481   3.427
 2997H+     POS 5022   5.765   1.946   4.970
 2998H+     POS 5023   0.948   0.987   1.806
 2999H+     POS 5024   0.271   4.724   4.761
 3000H+     POS 5025   0.953   0.100   2.216
 3001H+     POS 5026   0.418   4.614   1.906
 3002H+     POS 5027   0.264   0.058   0.616
 3003H+     POS 5028   4.760   5.814   3.893
 3004H+     POS 5029   4.812   0.383  -0.139
 3005H+     POS 5030   5.484   3.552   1.756
 3006H+     POS 5031   3.310   2.883   1.689
 3007H+     POS 5032   0.221   4.832   6.154
 3008H+     POS 5033   0.323   5.845   5.108
 3009H+     POS 5034   4.736   1.753   5.161
 3010H+     POS 5035   5.147   0.919   3.436
 3011H+     POS 5036   2.643   4.586   0.918
 3012H+     POS 5037   4.439   3.800   3.261
 3013H+     POS 5038   5.424   3.814   3.886
 3014H+     POS 5039   2.149   1.290   0.289
 3015H+     POS 5040   4.366   0.670   0.740
 3016H+     POS 5041   4.137   0.057   4.029
 3017H+     POS 5042   4.338   1.652   4.953
 3018H+     POS 5043   1.270   1.693   3.479
 3019H+     POS 5044   1.676   1.579   3.247
 3020H+     POS 5045   4.010   1.695   4.351
 3021H+     POS 5046   4.314   4.123   2.819
 3022H+     POS 5047   4.917   3.595   4.592
 3023H+     POS 5048   0.193   4.305   4.191
 3024H+     POS 5049   4.786   4.029   4.526
 3025H+     POS 5050   3.627   3.123   3.310
 3026H+     POS 5051   2.636   5.308   2.721
 3027H+     POS 5052   4.788   0.659   1.989
 3028H+     POS 5053   3.153   3.081   3.303
 3029H+     POS 5054   1.951   2.756   2.736
 3030H+     POS 5055   0.823   0.921   6.159
 3031H+     POS 5056   4.062   0.676   0.887
 3032H+     POS 5057   2.383   1.482   5.062
 3033H+     POS 5058   4.494   1.761   1.180
 3034H+     POS 5059   3.064   4.635   4.939
 3035H+     POS 5060   0.710   5.960   4.272
 3036H+     POS 5061   0.810   0.642   5.239
 3037H+     POS 5062   1.061   2.419   4.715
 3038H+     POS 5063   0.080   5.151   0.688
 3039H+     POS 5064   0.526   0.787   5.183
 3040H+     POS 5065   3.376   4.158   0.375
 3041H+     POS 5066   0.840   3.406   6.078
 3042H+     POS 5067   0.743   1.205   4.185
 3043H+     POS 5068   0.893   5.223   0.583
 3044H+     POS 5069   0.208   0.269   4.207
 3045H+     POS 5070   4.239   3.858   1.208
 3046H+     POS 5071   2.542   0.793   1.562
 3047H+     POS 5072   0.987   6.051   1.809
 3048H+     POS 5073   0.246   4.170   2.980
 3049H+     POS 5074   4.142   3.509   4.315
 3050H+     POS 5075   5.591   3.044   0.096
 3051H+     POS 5076   5.532   1.845   2.396
 3052H+     POS 5077   2.714   0.072   5.689
 3053H+     POS 5078   3.973   0.857   5.356
 3054H+     POS 5079   4.856   5.389   2.874
 3055H+     POS 5080   5.013   1.968   3.117
 3056H+     POS 5081   3.295   4.796   4.536
 3057H+     POS 5082   1.755   5.205   3.489
 3058H+     POS 5083   0.738   2.693   5.310
 3059H+     POS 5084   5.164   4.228   4.241
 3060H+     POS 5085   0.026   3.222   0.950
 3061H+     POS 5086   4.651   4.729   3.886
 3062H+     POS 5087   0.745   6.240   3.548
 3063H+     POS 5088   5.334   2.357   0.762
 3064H+     POS 5089   2.033   2.348   1.600
 3065H+     POS 5090   1.706   1.857   5.336
 3066H+     POS 5091   1.243   4.281   1.272
 3067H+     POS 5092   1.201   0.546   0.750
 3068H+     POS 5093   3.979   3.204   0.823
 3069H+     POS 5094   0.263   5.685   4.214
 3070H+     POS 5095   5.132   4.172   5.807
 3071H+     POS 5096   4.032   1.843   0.455
 3072H+     POS 5097   0.983   6.062   0.325
 3073H+     POS 5098   1.118   4.500   3.064
 3074H+     POS 5099   2.975   4.802   0.229
 3075H+     POS 5100   5.649   0.601   2.671
 3076H+     POS 5101   4.097   0.771   1.760
 3077H+     POS 5102   2.807   4.417   5.600
 3078H+     POS 5103   1.237   5.899   6.126
 3079H+     POS 5104   5.442   3.517   4.242
 3080H+     POS 5105   1.225   0.149   4.280
 3081H+     POS 5106   5.674   6.234   4.439
 3082H+     POS 5107   3.563   0.207   4.624
 3083H+     POS 5108   3.389   5.581   5.391
 3084H+     POS 5109   3.644   5.016   0.568
 3085H+     POS 5110   2.105   2.458   4.248
 3086H+     POS 5111   1.020   0.693   4.712
 3087H+     POS 5112   0.980   2.643   5.250
 3088H+     POS 5113   3.339   2.087   1.383
 3089H+     POS 5114   4.316   3.662   3.638
 3090H+     POS 5115   3.516   3.029   0.949
 3091H+     POS 5116   0.353   0.793   1.567
 3092H+     POS 5117   5.986   2.030   0.494
 3093H+     POS 5118   2.727   2.573   3.602
 3094H+     POS 5119   0.465   5.399   4.152
 3095H+     POS 5120   2.161   1.671   1.712
 3096H+     POS 5121   0.345   2.620   1.069
 3097H+     POS 5122   5.767   5.752   5.761
 3098H+     POS 5123   3.397   3.222   0.645
 3099H+     POS 5124   4.124   5.648   2.892
 3100H+     POS 5125   3.347   1.724   0.736
 3101H+     POS 5126   3.808   3.071   1.267
 3102H+     POS 5127   3.890   2.844   6.202
 3103H+     POS 5128  -0.102   0.691   1.910
 3104H+     POS 5129   4.680   5.931   6.117
 3105H+     POS 5130   5.693   0.070   6.352
 3106H+     POS 5131   2.100   2.833   1.535
 3107H+     POS 5132   4.138   4.409   5.383
 3108H+     POS 5133   5.443   0.744   3.867
 3109H+     POS 5134   0.766   3.032   4.582
 3110H+     POS 5135   1.756   4.734   3.250
 3111H+     POS 5136   1.194   3.541   1.125
 3112H+     POS 5137   3.312   2.749   3.791
 3113H+     POS 5138   1.787   0.037   4.672
 3114H+     POS 5139   3.213   0.565   5.244
 3115H+     POS 5140   5.428   0.211   1.669
 3116H+     POS 5141   1.363   3.592   0.179
 3117H+     POS 5142   5.937   4.785   3.241
 3118H+     POS 5143   5.706   2.834   2.733
 3119H+     POS 5144   2.199   3.203   2.937
 3120H+     POS 5145   3.342   2.806   2.044
 3121H+     POS 5146   0.123   2.545   3.614
 3122H+     POS 5147   2.496   0.332   1.962
 3123H+     POS 5148   1.311   0.470   5.235
 3124H+     POS 5149   1.379   3.078   4.687
 3125H+     POS 5150   4.644   4.056   2.218
 3126H+     POS 5151   3.604   6.313   2.541
 3127H+     POS 5152   3.506   1.450   0.988
 3128H+     POS 5153   3.729   5.341   2.496
 3129H+     POS 5154   5.852   3.362   3.322
 3130H+     POS 5155   5.600   2.857   0.881
 3131H+     POS 5156   5.004   4.495   0.099
 3132H+     POS 5157   2.504   3.623   3.285
 3133H+     POS 5158   0.469   1.073   4.339
 3134H+     POS 5159   0.670   2.179   5.168
 3135H+     POS 5160   1.155   0.563   4.248
 3136H+     POS 5161   6.111   2.069   1.314
 3137H+     POS 5162   0.216   5.578   5.212
 3138H+     POS 5163   0.166   0.202   5.408
 3139H+     POS 5164   2.513   1.155   2.731
 3140H+     POS 5165   0.248   0.980   4.790
 3141H+     POS 5166   0.918   4.591   4.033
 3142H+     POS 5167   3.009   5.553   1.218
 3143H+     POS 5168   2.925   1.119   2.520
 3144H+     POS 5169   1.184   4.252   6.020
 3145H+     POS 5170   0.305   1.385   5.754
 3146H+     POS 5171   5.251   3.231   0.157
 3147H+     POS 5172   2.939   5.917   0.086
 3148H+     POS 5173   0.993   5.498   4.930
 3149H+     POS 5174   2.876   3.763   1.289
 3150H+     POS 5175   5.170   0.996   0.581
 3151H+     POS 5176   0.448   0.620   2.171
 3152H+     POS 5177   5.409   3.897   2.777
 3153H+     POS 5178   6.011   1.348   2.208
 3154H+     POS 5179   4.041   1.757   2.971
 3155H+     POS 5180   1.956   1.252   1.678
 3156H+     POS 5181   1.713   2.474   5.246
 3157H+     POS 5182   6.030   2.286   5.634
 3158H+     POS 5183   0.819   1.941   5.715
 3159H+     POS 5184   0.578   6.249   6.056
 3160H+     POS 5185   6.086   2.489   0.650
 3161H+     POS 5186   4.988   1.751   5.003
 3162H+     POS 5187   5.470   1.628   4.709
 3163H+     POS 5188   4.942   1.977   1.643
 3164H+     POS 5189   5.534   5.003   3.722
 3165H+     POS 5190   5.794   3.099   5.103
 3166H+     POS 5191   0.113   5.308   1.136
 3167H+     POS 5192   3.089   1.354   4.361
 3168H+     POS 5193   5.151   0.394   5.946
 3169H+     POS 5194   5.189   2.337   2.303
 3170H+     POS 5195   1.389   0.407   4.689
 3171H+     POS 5196   0.803   4.706   0.864
 3172H+     POS 5197   0.488   5.449   5.876
 3173H+     POS 5198   2.598   0.552   4.570
 3174H+     POS 5199   0.245   0.271   3.648
 3175H+     POS 5200   3.861   2.770   1.967
 3176H+     POS 5201   5.907   3.686   2.641
 3177H+     POS 5202   0.765   0.751   4.202
 3178H+     POS 5203   2.159   5.473   4.623
 3179H+     POS 5204   4.500   1.452   6.365
 3180H+     POS 5205   5.381   1.686   3.408
 3181H+     POS 5206   5.878   4.938   0.764
 3182H+     POS 5207   5.546   3.602   2.679
 3183H+     POS 5208   4.509   4.270   3.399
 3184H+     POS 5209   6.063   3.895   2.721
 3185H+     POS 5210   2.914   0.078   2.086
 3186H+     POS 5211   0.901   3.025   5.184
 3187H+     POS 5212   5.411   4.087   2.247
 3188H+     POS 5213   5.517   1.776   1.852
 3189H+     POS 5214   2.238   2.699   2.336
 3190H+     POS 5215   1.312   1.738   0.989
 3191H+     POS 5216   5.376   5.965   4.795
 3192H+     POS 5217   3.358   3.960   5.152
 3193H+     POS 5218   0.443   4.018   2.127
 3194H+     POS 5219   1.606   2.626   3.228
 3195H+     POS 5220   2.987   1.741   5.341
 3196H+     POS 5221   1.567   1.574   2.883
 3197H+     POS 5222   1.746   2.899   5.767
 3198H+     POS 5223   0.362   1.450   1.299
 3199H+     POS 5224   2.388   1.154   3.289
 3200H+     POS 5225   3.120   4.240  -0.004
 3201H+     POS 5226   2.743   2.528   4.084
 3202H+     POS 5227   2.440   0.365   4.442
 3203H+     POS 5228   3.948   1.254   2.226
 3204H+     POS 5229   3.923   4.187   4.008
 3205H+     POS 5230   1.281   3.925   0.771
 3206H+     POS 5231   3.177   2.350   0.408
 3207H+     POS 5232   3.019   5.130   2.980
 3208H+     POS 5233   6.212   0.229   2.559
 3209H+     POS 5234   0.385   5.651   2.861
 3210H+     POS 5235   3.748   3.878   3.820
 3211H+     POS 5236   4.645   4.633   4.397
 3212H+     POS 5237   0.120   0.671   2.300
 3213H+     POS 5238   3.597   5.195   5.959
 3214H+     POS 5239   1.252   4.559   3.588
 3215H+     POS 5240   0.095   2.971   5.553
 3216H+     POS 5241   2.446   2.552   1.754
 3217H+     POS 5242   3.561   4.835   5.218
 3218H+     POS 5243   1.126   2.796   0.671
 3219H+     POS 5244   5.439   2.859   1.396
 3220H+     POS 5245   4.792   3.578   0.934
 3221H+     POS 5246   1.393   4.690   5.419
 3222H+     POS 5247   0.126   4.417   2.627
 3223H+     POS 5248   4.087   2.509   3.103
 3224H+     POS 5249   1.128   4.729   0.097
 3225H+     POS 5250   1.887   5.507   1.622
 3226H+     POS 5251   3.150   6.011   2.701
 3227H+     POS 5252   5.284   0.596   4.380
 3228H+     POS 5253   0.995   3.139   5.778
 3229H+     POS 5254   2.735   0.989   2.002
 3230H+     POS 5255   3.400   4.622   5.636
 3231H+     POS 5256   5.677   4.699   4.625
 3232H+     POS 5257   0.021   1.167   2.802
 3233H+     POS 5258   4.163   0.738   0.358
 3234H+     POS 5259   0.517   6.052   2.077
 3235H+     POS 5260   2.221   1.671   1.042
 3236H+     POS 5261   5.215   2.808   2.061
 3237H+     POS 5262   0.301   2.759   5.318
 3238H+     POS 5263   5.338   5.054   1.362
 3239H+     POS 5264   2.899   0.803   5.576
 3240H+     POS 5265   5.674   1.972   1.069
 3241H+     POS 5266   5.231   4.780   5.372
 3242H+     POS 5267   5.277   1.257   2.572
 3243H+     POS 5268   2.335   1.077   5.114
 3244H+     POS 5269   5.682   4.153   5.433
 3245H+     POS 5270   2.401   0.431   5.319
 3246H+     POS 5271   0.095   3.257   4.886
 3247H+     POS 5272   3.166   5.554   1.734
 3248H+     POS 5273   2.712   3.215   4.896
 3249H+     POS 5274   5.025   2.883   0.881
 3250H+     POS 5275   0.104   2.028   0.870
 3251H+     POS 5276   4.856   1.014   1.103
 3252H+     POS 5277   1.399   1.652   5.303
 3253H+     POS 5278   5.019   1.032   5.917
 3254H+     POS 5279   1.559   0.318   5.992
 3255H+     POS 5280   5.266   6.122   3.917
 3256H+     POS 5281   3.617   4.517   6.198
 3257H+     POS 5282   4.535   0.959   6.163
 3258H+     POS 5283   0.165   3.238   5.013
 3259H+     POS 5284   1.718   5.088   5.756
 3260H+     POS 5285   3.727   5.450   0.577
 3261H+     POS 5286   2.942   1.992   0.508
 3262H+     POS 5287   0.628   4.091   0.694
 3263H+     POS 5288   4.084   4.307   4.890
 3264H+     POS 5289   3.060   1.416   1.122
 3265H+     POS 5290   6.043   1.204   0.564
 3266H+     POS 5291   4.044   1.485  -0.000
 3267H+     POS 5292   5.634   2.002   2.653
 3268H+     POS 5293   4.971   4.483   1.208
 3269H+     POS 5294   2.997   3.335   2.474
 3270H+     POS 5295   0.766   5.694   0.723
 3271H+     POS 5296   1.545   0.889   2.404
 3272H+     POS 5297   4.683   1.765   0.210
 3273H+     POS 5298   4.376   2.866   5.806
 3274H+     POS 5299   5.241   0.381   2.665
 3275H+     POS 5300   4.994   1.106   2.803
 3276H+     POS 5301   4.485   2.068   5.799
 3277H+     POS 5302   3.468   5.623   0.262
 3278H+     POS 5303   6.250   1.974   5.670
 3279H+     POS 5304   4.282   1.947   1.525
 3280H+     POS 5305   1.151   4.628   4.580
 3281H+     POS 5306   2.074   1.181   4.367
 3282H+     POS 5307   2.193   1.953   5.514
 3283H+     POS 5308   0.760   5.629   1.931
 3284H+     POS 5309   0.400   2.687   3.211
 3285H+     POS 5310   5.526   3.749   4.764
 3286H+     POS 5311   0.468   3.939   1.759
 3287H+     POS 5312   5.415   2.517   1.650
 3288H+     POS 5313   1.567   5.849   1.466
 3289H+     POS 5314   3.178   1.563   5.627
 3290H+     POS 5315   5.869   0.505   6.144
 3291H+     POS 5316   2.282   4.956   2.451
 3292H+     POS 5317   0.610   3.872   2.545
 3293H+     POS 5318   1.052   2.503   3.158
 3294H+     POS 5319   0.544   5.216   4.849
 3295H+     POS 5320   5.038   4.117   0.461
 3296H+     POS 5321   4.888   4.969   2.428
 3297H+     POS 5322   3.633   4.727   1.415
 3298H+     POS 5323   1.715   4.038   5.474
 3299H+     POS 5324   2.362   4.071   5.119
 3300H+     POS 5325   3.443   4.698   3.585
 3301H+     POS 5326   5.391   3.089   2.359
 3302H+     POS 5327   1.432   2.094   4.315
 3303H+     POS 5328   5.541   3.093   5.934
 3304H+     POS 5329   5.524   1.245   0.547
 3305H+     POS 5330   2.736   3.515   3.408
 3306H+     POS 5331   4.442   6.170   5.562
 3307H+     POS 5332   4.060   3.649   3.148
 3308H+     POS 5333   0.484   0.357   1.806
 3309H+     POS 5334   4.258   0.168   2.299
 3310H+     POS 5335   2.777   5.809   1.247
 3311H+     POS 5336   4.219   1.013   1.316
 3312H+     POS 5337   1.345   3.246   0.451
 3313H+     POS 5338   2.027  -0.043   4.446
 3314H+     POS 5339   0.026   3.475   3.155
 3315H+     POS 5340   4.202   4.155   6.033
 3316H+     POS 5341   5.387   3.614   0.435
 3317H+     POS 5342   0.544   0.760   2.729
 3318H+     POS 5343   5.343   3.264   5.560
 3319H+     POS 5344   3.179   5.917   5.687
 3320H+     POS 5345   5.542   2.722   5.243
 3321H+     POS 5346   1.727   4.048   0.567
 3322H+     POS 5347   1.561   3.587   3.083
 3323H+     POS 5348   6.137   0.685   5.132
 3324H+     POS 5349   4.267   0.767   3.162
 3325H+     POS 5350   0.444  -0.032   2.982
 3326H+     POS 5351   0.140   3.445   2.774
 3327H+     POS 5352   5.981   0.986   3.186
 3328H+     POS 5353   0.982   2.868   2.268
 3329H+     POS 5354   3.927   1.781   4.965
 3330H+     POS 5355   2.838   4.945   2.202
 3331H+     POS 5356   3.489   1.280   4.008
 3332H+     POS 5357   4.226   1.554   2.530
 3333H+     POS 5358   2.182   3.437   1.362
 3334H+     POS 5359   3.054   6.234   4.931
 3335H+     POS 5360   0.201   3.062   1.362
 3336H+     POS 5361   3.566   1.580   3.319
 3337H+     POS 5362   3.835   4.809   5.946
 3338H+     POS 5363   2.042   3.796   1.462
 3339H+     POS 5364   2.741   5.664   5.156
 3340H+     POS 5365   0.189   5.882   5.807
 3341H+     POS 5366   1.197   0.248   3.716
 3342H+     POS 5367   0.087   1.632   3.834
 3343H+     POS 5368   1.490   1.280   1.160
 3344H+     POS 5369   0.183   3.902   5.122
 3345H+     POS 5370   2.978   1.438   5.987
 3346H+     POS 5371   1.175   2.673   5.942
 3347H+     POS 5372   3.879   6.064   3.961
 3348H+     POS 5373   5.611   4.519   1.917
 3349H+     POS 5374   3.087   4.666   2.422
 3350H+     POS 5375   4.599   2.453   2.706
 3351H+     POS 5376   5.204   1.820   0.252
 3352H+     POS 5377   4.202   4.245   2.489
 3353H+     POS 5378   2.141   1.972   4.109
 3354H+     POS 5379   5.723   4.830   2.570
 3355H+     POS 5380   1.288   4.197   2.559
 3356H+     POS 5381   4.263   1.277   0.398
 3357H+     POS 5382   6.159   2.958   0.541
 3358H+     POS 5383   0.636   4.852   2.596
 3359H+     POS 5384   5.022   3.990   2.848
 3360H+     POS 5385   3.196   5.375   3.595
 3361H+     POS 5386   1.361   4.860   1.816
 3362H+     POS 5387   0.105   4.038   2.395
 3363H+     POS 5388  -0.020   4.603   1.352
 3364H+     POS 5389   4.977   4.933   1.213
 3365H+     POS 5390   1.446   4.448   0.119
 3366H+     POS 5391   2.044   4.304   3.689
 3367H+     POS 5392   2.849   6.100   3.503
 3368H+     POS 5393   2.560   4.583   4.419
 3369H+     POS 5394   2.386   4.610   0.219
 3370H+     POS 5395   5.454   5.356   0.279
 3371H+     POS 5396   0.434   3.783   6.294
 3372H+     POS 5397   4.170   3.213   1.167
 3373H+     POS 5398   2.712   0.128   0.769
 3374H+     POS 5399   1.811   5.020   2.529
 3375H+     POS 5400   5.053   2.705   5.728
 3376H+     POS 5401   4.943   1.994   4.622
 3377H+     POS 5402   0.519   2.391   0.024
 3378H+     POS 5403   2.173   2.841   0.613
 3379H+     POS 5404   0.703   0.446   3.676
 3380H+     POS 5405   4.135   2.758   2.556
 3381H+     POS 5406   1.668   0.294   4.336
 3382H+     POS 5407   2.768   4.455   1.800
 3383H+     POS 5408   1.769   5.815   5.660
 3384H+     POS 5409   2.406   0.329   4.675
 3385H+     POS 5410   4.842   1.728   6.033
 3386H+     POS 5411   4.564   0.816   3.635
 3387H+     POS 5412   0.465   2.560   1.611
 3388H+     POS 5413   5.070   1.583   3.387
 3389H+     POS 5414   5.343   6.026   2.066
 3390H+     POS 5415   1.632   3.170   1.150
 3391H+     POS 5416   3.020   3.831   5.863
 3392H+     POS 5417   3.856   2.570   3.003
 3393H+     POS 5418   3.898   3.488   6.332
 3394H+     POS 5419   4.177   5.319   4.740
 3395H+     POS 5420   5.758   5.043   2.009
 3396H+     POS 5421   4.184   0.050   2.729
 3397H+     POS 5422   4.505   0.269   1.479
 3398H+     POS 5423   3.989   1.828   1.181
 3399H+     POS 5424   5.018   3.903   4.196
 3400H+     POS 5425   2.952   3.896   2.670
 3401H+     POS 5426   1.655   2.124   4.041
 3402H+     POS 5427   5.366   4.246   4.020
 3403H+     POS 5428   6.216   3.280   6.110
 3404H+     POS 5429   4.051   3.392   3.219
 3405H+     POS 5430   1.062   3.521   4.627
 3406H+     POS 5431   3.870   2.352   2.638
 3407H+     POS 5432   3.372   3.469   3.139
 3408H+     POS 5433   2.103   5.404   3.145
 3409H+     POS 5434   3.042   4.338   4.179
 3410H+     POS 5435   4.040   3.950   4.533
 3411H+     POS 5436   5.091   2.126   0.161
 3412H+     POS 5437   4.638   3.739   5.793
 3413H+     POS 5438   5.785   2.990   4.646
 3414H+     POS 5439   3.578   1.940   2.436
 3415H+     POS 5440   3.242   0.748   0.936
 3416H+     POS 5441   4.537   3.357   3.988
 3417H+     POS 5442   0.666   3.479   3.148
 3418H+     POS 5443   5.783   3.821   4.403
 3419H+     POS 5444   2.033   0.948   4.150
 3420H+     POS 5445   5.951   4.776   2.071
 3421H+     POS 5446   2.142   0.592   2.741
 3422H+     POS 5447   0.216   2.965   3.870
 3423H+     POS 5448   4.856   0.445   1.379
 3424H+     POS 5449   5.534   4.725   4.124
 3425H+     POS 5450   5.627   5.949   1.368
 3426H+     POS 5451   0.070   4.168   1.579
 3427H+     POS 5452   2.967   4.837   5.328
 3428H+     POS 5453   1.175   5.119   4.161
 3429H+     POS 5454   2.710   1.896   2.796
 3430H+     POS 5455   0.600   2.204   2.631
 3431H+     POS 5456   1.670   2.350   1.197
 3432H+     POS 5457   5.283   4.010   1.872
 3433H+     POS 5458   3.964   0.797   3.414
 3434H+     POS 5459   3.047   4.092   4.845
 3435H+     POS 5460   1.085   1.028   5.447
 3436H+     POS 5461   5.617   4.394   3.441
 3437H+     POS 5462   2.743   5.149   0.652
 3438H+     POS 5463   3.684   2.613   0.505
 3439H+     POS 5464   3.995   4.009   0.150
 3440H+     POS 5465   5.051   6.046   2.763
 3441H+     POS 5466   2.815   3.405   0.500
 3442H+     POS 5467   4.410   3.574   4.632
 3443H+     POS 5468   0.009   3.462   4.422
 3444H+     POS 5469   4.842   5.274   1.411
 3445H+     POS 5470   5.523   2.267   3.946
 3446H+     POS 5471   3.342   0.714   4.599
 3447H+     POS 5472   3.387   6.058   1.494
 3448H+     POS 5473   4.536   5.643   3.025
 3449H+     POS 5474   5.688   5.293   5.584
 3450H+     POS 5475   5.042   4.399   1.763
 3451H+     POS 5476  -0.009   5.833   3.189
 3452H+     POS 5477   0.647   0.447   0.678
 3453H+     POS 5478   5.042   5.837   5.799
 3454H+     POS 5479   1.624   5.977   0.124
 3455H+     POS 5480   4.054   4.510   3.782
 3456H+     POS 5481   2.871   2.800   4.490
 3457H+     POS 5482   4.414   5.007   6.080
 3458H+     POS 5483   2.596   5.268   4.066
 3459H+     POS 5484   4.538   0.779   2.449
 3460H+     POS 5485   5.783   5.854   5.367
 3461H+     POS 5486   5.466   4.276   4.653
 3462H+     POS 5487   1.529   1.806   1.631
 3463H+     POS 5488   4.490   6.117   4.441
 3464H+     POS 5489   5.627   2.286   4.411
 3465H+     POS 5490   2.446   3.107   5.455
 3466H+     POS 5491   2.597   0.857   0.174
 3467H+     POS 5492   4.388   1.217   5.371
 3468H+     POS 5493   2.481   1.037   1.015
 3469H+     POS 5494   1.823   5.887   2.595
 3470H+     POS 5495   0.731   1.420   5.268
 3471H+     POS 5496   5.979   1.114   2.601
 3472H+     POS 5497   1.925   2.264   4.003
 3473H+     POS 5498   1.835   4.559   5.330
 3474H+     POS 5499   2.130   0.476   2.000
 3475H+     POS 5500   6.010   4.465   5.387
 3476H+     POS 5501   1.317   1.218   5.694
 3477H+     POS 5502   4.480   1.177   4.769
 3478H+     POS 5503   1.776   5.263   0.355
 3479H+     POS 5504   5.421   2.722   3.621
 3480H+     POS 5505   5.956   0.938   0.262
 3481H+     POS 5506   4.857   3.730   1.361
 3482H+     POS 5507   5.686   5.730   3.344
 3483H+     POS 5508   1.968   1.965   1.363
 3484H+     POS 5509   4.359   3.236   1.916
 3485H+     POS 5510   1.333   6.048   2.172
 3486H+     POS 5511   4.705   2.245   3.099
 3487H+     POS 5512   1.914   1.875   2.450
 3488H+     POS 5513   0.306   1.273   0.822
 3489H+     POS 5514   3.954   0.249   2.198
 3490H+     POS 5515   2.189   1.865   3.246
 3491H+     POS 5516   5.760   1.852   5.236
 3492H+     POS 5517   0.611   5.625   2.481
 3493H+     POS 5518   3.427   3.497   4.133
 3494H+     POS 5519   1.707   4.975   4.674
 3495H+     POS 5520   2.321   5.504   4.284
 3496H+     POS 5521   4.416  -0.031   6.124
 3497H+     POS 5522   3.708   5.750   0.773
 3498H+     POS 5523   1.483   2.026   0.476
 3499H+     POS 5524   3.848   4.911   1.939
 3500H+     POS 5525   2.885   6.271   1.745
 3501H+     POS 5526   0.327   5.533   3.745
 3502H+     POS 5527   0.918   5.505   4.512
 3503H+     POS 5528   0.115   5.344   2.687
 3504H+     POS 5529   4.468   5.416   0.132
 3505H+     POS 5530   4.066   1.275   1.498
 3506H+     POS 5531   5.737   3.424   1.198
 3507H+     POS 5532   5.131   4.705   5.745
 3508H+     POS 5533   5.788   1.127   1.540
 3509H+     POS 5534   1.732   5.609   5.263
 3510H+     POS 5535   5.161   0.091   0.073
 3511H+     POS 5536   4.192   5.880   2.370
 3512H+     POS 5537   4.290   1.334   2.071
 3513H+     POS 5538   1.228   1.259   3.277
 3514H+     POS 5539   2.211   3.630  -0.096
 3515H+     POS 5540   1.692   4.323   3.958
 3516H+     POS 5541   0.870   3.028   3.309
 3517H+     POS 5542   5.433   0.422   4.468
 3518H+     POS 5543   6.033   2.283   2.267
 3519H+     POS 5544   1.701   4.854   0.324
 3520H+     POS 5545   1.507   2.776   2.501
 3521H+     POS 5546   5.295   1.398   1.599
 3522H+     POS 5547   1.841   3.041   2.375
 3523H+     POS 5548   0.554   4.196   4.942
 3524H+     POS 5549   1.546   0.792   3.557
 3525H+     POS 5550   1.334   0.669   2.135
 3526H+     POS 5551   3.062   3.396   5.214
 3527H+     POS 5552   2.119   5.008   3.213
 3528H+     POS 5553   0.654   1.612   2.083
 3529H+     POS 5554   1.217   5.997   5.146
 3530H+     POS 5555   5.888   2.732   3.611
 3531H+     POS 5556   4.037   2.467   4.915
 3532H+     POS 5557   4.506   2.775   1.659
 3533H+     POS 5558   5.425   1.299   3.647
 3534H+     POS 5559   3.055   5.329   1.133
 3535H+     POS 5560   5.692   4.081   1.645
 3536H+     POS 5561   4.585   3.498   2.396
 3537H+     POS 5562   5.447   2.147   4.719
 3538H+     POS 5563   3.815   4.915   4.835
 3539H+     POS 5564   4.045   5.578   1.906
 3540H+     POS 5565   5.055   0.416   3.880
 3541H+     POS 5566   4.138   5.253   1.767
 3542H+     POS 5567   3.330   2.263   6.061
 3543H+     POS 5568   3.345   2.732   0.367
 3544H+     POS 5569   2.972   0.943   5.153
 3545H+     POS 5570   3.403   6.052   2.234
 3546H+     POS 5571   5.644   2.787   2.244
 3547H+     POS 5572   0.492   1.747   2.851
 3548H+     POS 5573   3.331   0.082   3.886
 3549H+     POS 5574   2.565   0.209   3.285
 3550H+     POS 5575   1.400   5.535   4.080
 3551H+     POS 5576   4.843   1.126   0.320
 3552H+     POS 5577   1.842   4.719   6.232
 3553H+     POS 5578   0.137   5.272   5.804
 3554H+     POS 5579   3.631   1.626   4.346
 3555H+     POS 5580   2.614   2.298   2.317
 3556H+     POS 5581   1.242   5.470   3.332
 3557H+     POS 5582   1.619   5.096   2.065
 3558H+     POS 5583   3.588   1.577   2.156
 3559H+     POS 5584   2.727   4.380   3.573
 3560H+     POS 5585   2.777   3.297   2.401
 3561H+     POS 5586   0.988   5.549   1.944
 3562H+     POS 5587   3.149   3.971   3.516
 3563H+     POS 5588   5.821   2.758   1.448
 3564H+     POS 5589   4.052   5.082   2.446
 3565H+     POS 5590   2.452   2.782   6.189
 3566H+     POS 5591   5.942   4.632   5.922
 3567H+     POS 5592   0.392   5.194   4.645
 3568H+     POS 5593   3.747   0.716   4.744
 3569H+     POS 5594   2.191   4.268   1.110
 3570H+     POS 5595   5.339   1.188   1.118
 3571H+     POS 5596   0.421   0.728   5.853
 3572H+     POS 5597   1.526   6.279   1.739
 3573H+     POS 5598   5.364   0.489   5.008
 3574H+     POS 5599   4.168   2.814   0.217
 3575H+     POS 5600   4.833   5.131   4.735
 3576H+     POS 5601   0.691   5.391   0.855
 3577H+     POS 5602   4.951   5.779   0.270
 3578H+     POS 5603   6.356   2.399   4.417
 3579H+     POS 5604   4.079   5.829   3.590
 3580H+     POS 5605   3.163   5.656   3.117
 3581H+     POS 5606   4.031   6.139   1.240
 3582H+     POS 5607   0.179   1.494   1.969
 3583H+     POS 5608   5.174   5.435   3.720
 3584H+     POS 5609   1.745   4.351   3.478
 3585H+     POS 5610   1.271   5.328   1.709
 3586H+     POS 5611   2.194   4.074   1.689
 3587H+     POS 5612   4.515   0.585   2.656
 3588H+     POS 5613   5.012   5.672   0.922
 3589H+     POS 5614   1.595   0.834   1.100
 3590H+     POS 5615   5.778   5.074   1.316
 3591H+     POS 5616   4.796   5.369   3.709
 3592H+     POS 5617   4.837   1.718   2.506
 3593H+     POS 5618   3.139   1.335   2.898
 3594H+     POS 5619   0.690   0.320   3.279
 3595H+     POS 5620   3.125   1.864   0.899
 3596H+     POS 5621   1.700   5.720   0.987
 3597H+     POS 5622   2.776   5.929   5.370
 3598H+     POS 5623   5.772   3.286   6.237
 3599H+     POS 5624   4.370   3.810   2.465
 3600H+     POS 5625   0.209   2.050   2.193
 3601H+     POS 5626   4.841   5.293   3.942
 3602H+     POS 5627   4.370   2.504   4.341
 3603H+     POS 5628   1.440   4.462   3.957
 3604H+     POS 5629   2.144   2.739   5.199
 3605H+     POS 5630   3.832   3.169   0.499
 3606H+     POS 5631   2.707   1.986   3.387
 3607H+     POS 5632   1.230   1.623   6.151
 3608H+     POS 5633   4.353   3.465   5.648
 3609H+     POS 5634   3.563   0.248   2.344
 3610H+     POS 5635   1.181   1.032   6.141
 3611H+     POS 5636   1.795   5.191   5.221
 3612H+     POS 5637   0.805   1.138   3.015
 3613H+     POS 5638   4.560   0.418   5.115
 3614H+     POS 5639   3.166   4.912   4.268
 3615H+     POS 5640   0.255   4.766   3.219
 3616H+     POS 5641   2.394   3.040   4.548
 3617H+     POS 5642   3.485   3.658   4.291
 3618H+     POS 5643   6.242   4.567   6.314
 3619H+     POS 5644   0.766  -0.048   5.511
 3620H+     POS 5645   2.283   4.527   1.441
 3621H+     POS 5646   1.754   1.963   5.644
 3622H+     POS 5647   5.950   3.812   0.250
 3623H+     POS 5648   2.248   0.460   5.710
 3624H+     POS 5649   3.232   4.842   0.975
 3625H+     POS 5650   3.227   2.449   1.217
 3626H+     POS 5651   3.456   5.745   4.188
 3627H+     POS 5652   1.423   2.547   0.124
 3628H+     POS 5653   1.693   1.852   4.899
 3629H+     POS 5654   2.198   3.902   2.098
 3630H+     POS 5655   0.604   2.746   5.887
 3631H+     POS 5656   1.248   4.217   5.144
 3632H+     POS 5657   4.783   2.229   0.638
 3633H+     POS 5658   0.772   0.372   2.835
 3634H+     POS 5659   2.800   0.169   4.998
 3635H+     POS 5660   4.021   0.990   0.129
 3636H+     POS 5661   0.177   5.347   0.235
 3637H+     POS 5662   2.192   2.179   5.987
 3638H+     POS 5663   1.244   3.848   5.561
 3639H+     POS 5664   5.120   3.414   1.353
 3640H+     POS 5665   3.706   3.617   5.393
 3641H+     POS 5666   3.901   1.335   5.874
 3642H+     POS 5667   5.868   2.817   4.191
 3643H+     POS 5668   2.392   2.781   1.909
 3644H+     POS 5669   3.236   1.421   4.814
 3645H+     POS 5670   3.484   3.464   1.414
 3646H+     POS 5671   4.710   1.807   3.585
 3647H+     POS 5672   0.336   5.571   0.847
 3648H+     POS 5673   3.374   0.847   3.367
 3649H+     POS 5674   1.444   3.967   4.077
 3650H+     POS 5675   2.656   1.754   5.562
 3651H+     POS 5676   4.559   2.722   4.799
 3652H+     POS 5677   4.509   3.550   6.175
 3653H+     POS 5678   4.464   4.553   1.208
 3654H+     POS 5679   1.555   2.241   3.257
 3655H+     POS 5680   2.414   2.074   1.359
 3656H+     POS 5681   4.611   5.079   0.406
 3657H+     POS 5682   0.103   4.864   4.098
 3658H+     POS 5683   0.185   3.967   5.436
 3659H+     POS 5684   1.151   1.993   1.969
 3660H+     POS 5685   0.705   1.551   5.983
 3661H+     POS 5686   6.104   0.265   3.666
 3662H+     POS 5687   5.380   5.179   4.727
 3663H+     POS 5688   5.641   2.170   5.872
 3664H+     POS 5689   6.044   4.570   3.952
 3665H+     POS 5690   2.999   3.944   3.151
 3666H+     POS 5691   2.596   3.269   0.899
 3667H+     POS 5692   6.264   4.579   2.620
 3668H+     POS 5693   4.312   2.234   5.230
 3669H+     POS 5694   0.692  -0.077   2.567
 3670H+     POS 5695   3.743   5.514   3.488
 3671H+     POS 5696   2.089   0.831   4.209
 3672H+     POS 5697   2.749   1.442   0.857
 3673H+     POS 5698   6.210   5.517   1.261
 3674H+     POS 5699   4.823   2.090   2.066
 3675H+     POS 5700   1.814   6.351   1.936
 3676H+     POS 5701   3.973   1.272   3.610
 3677H+     POS 5702   5.933   1.326   3.618
 3678H+     POS 5703   1.372   4.960   6.105
 3679H+     POS 5704   5.629   6.210   5.354
 3680H+     POS 5705   0.759   0.233   0.368
 3681H+     POS 5706   2.141   4.638   4.929
 3682H+     POS 5707   5.839   5.383   1.671
 3683H+     POS 5708   5.130   4.701   2.039
 3684H+     POS 5709   0.580   3.472   0.744
 3685H+     POS 5710   0.788   4.856   3.200
 3686H+     POS 5711   4.126   1.934   3.404
 3687H+     POS 5712   5.464   3.484   5.720
 3688H+     POS 5713   1.119   3.365   4.957
 3689H+     POS 5714   0.447   0.674   3.296
 3690H+     POS 5715   2.354   3.893   5.728
 3691H+     POS 5716   4.686   3.318   2.918
 3692H+     POS 5717   3.806   0.158   4.656
 3693H+     POS 5718   2.359   1.365   4.036
 3694H+     POS 5719   0.818   1.947   0.165
 3695H+     POS 5720   5.846   3.117   0.741
 3696H+     POS 5721   5.536   4.104   5.801
 3697H+     POS 5722   2.211   1.352   5.181
 3698H+     POS 5723   4.705   0.585   3.416
 3699H+     POS 5724   3.604   1.652   6.046
 3700H+     POS 5725   0.545   3.544   1.121
 3701H+     POS 5726   4.072   4.541   5.540
 3702H+     POS 5727   1.798   0.655   1.662
 3703H+     POS 5728   1.581   3.650   5.226
 3704H+     POS 5729   3.466   1.918   3.726
 3705H+     POS 5730   1.821   4.154   2.846
 3706H+     POS 5731   2.800   1.763   3.043
 3707H+     POS 5732   0.969   1.682   3.926
 3708H+     POS 5733   3.119   4.771   1.418
 3709H+     POS 5734   0.106   0.274   1.337
 3710H+     POS 5735   5.866   5.723   4.135
 3711H+     POS 5736   3.185   3.924   1.992
 3712H+     POS 5737   3.481   4.714   0.191
 3713H+     POS 5738   3.629   2.301   1.393
 3714H+     POS 5739   2.145   3.179   5.949
 3715H+     POS 5740   2.055   5.244   5.642
 3716H+     POS 5741   5.571   0.358   4.108
 3717H+     POS 5742   0.712   5.002   2.104
 3718H+     POS 5743   2.234   0.520   3.823
 3719H+     POS 5744   1.649   1.042   2.944
 3720H+     POS 5745   0.571   0.691   0.312
 3721H+     POS 5746   3.386   1.015   5.173
 3722H+     POS 5747   2.366   4.375   4.530
 3723H+     POS 5748   1.010   3.035   4.189
 3724H+     POS 5749   2.930   6.163   1.163
 3725H+     POS 5750   4.056   2.892   0.635
 3726H+     POS 5751   0.887   3.395   2.599
 3727H+     POS 5752   5.442   5.957   6.278
 3728H+     POS 5753   3.994   3.529   1.411
 3729H+     POS 5754   3.171   2.689   5.950
 3730H+     POS 5755   3.031   3.739   4.311
 3731H+     POS 5756   2.556   4.336   2.504
 3732H+     POS 5757   4.789   2.331   1.138
 3733H+     POS 5758   6.231   1.417   4.289
 3734H+     POS 5759   4.667   2.010   2.367
 3735H+     POS 5760   5.116   3.662   0.430
 3736H+     POS 5761   1.353   1.035   4.435
 3737H+     POS 5762   4.312   0.782   4.416
 3738H+     POS 5763   4.890   5.920   1.700
 3739H+     POS 5764   0.824   1.388   2.266
 3740H+     POS 5765   3.106   3.527   4.541
 3741H+     POS 5766   5.659   5.741   4.372
 3742H+     POS 5767   0.372   0.893   2.118
 3743H+     POS 5768   1.767   5.522   2.183
 3744H+     POS 5769   1.386   3.266   1.328
 3745H+     POS 5770   2.278   2.265   2.162
 3746H+     POS 5771   0.784   2.850   3.893
 3747H+     POS 5772   0.734   2.944   0.018
 3748H+     POS 5773   2.645   2.173   0.681
 3749H+     POS 5774   2.225   5.828   2.113
 3750H+     POS 5775   6.088   6.035   4.815
 3751H+     POS 5776   2.585   3.180   3.622
 3752H+     POS 5777   2.709   0.099   4.321
 3753H+     POS 5778   0.283   1.973   1.429
 3754H+     POS 5779   0.842   3.260   0.369
 3755H+     POS 5780   3.836   5.399   5.082
 3756H+     POS 5781   2.664   6.124   2.208
 3757H+     POS 5782   6.148   2.091   6.283
 3758H+     POS 5783   5.210   5.588   2.224
 3759H+     POS 5784   1.808   0.228   5.350
 3760H+     POS 5785   3.124   5.203   6.234
 3761H+     POS 5786   4.227   0.188   5.044
 3762H+     POS 5787   0.985   2.783   1.260
 3763H+     POS 5788   0.253   3.553   5.351
 3764H+     POS 5789   0.672   5.153   0.055
 3765H+     POS 5790   0.633   4.255   5.239
 3766H+     POS 5791   6.132   2.963   2.474
 3767H+     POS 5792   1.813   3.185   0.537
 3768H+     POS 5793   3.110   6.187   5.428
 3769H+     POS 5794   3.121   1.511   2.431
 3770H+     POS 5795   5.598   2.131   0.597
 3771H+     POS 5796   5.088   2.615   1.361
 3772H+     POS 5797   1.826   1.529   2.315
 3773H+     POS 5798   3.578   2.976   2.356
 3774H+     POS 5799   0.252   4.004   3.562
 3775H+     POS 5800   2.084   0.210   6.116
 3776H+     POS 5801   2.669   3.613   1.812
 3777H+     POS 5802   4.544   4.313   5.418
 3778H+     POS 5803   3.786   6.172   1.641
 3779H+     POS 5804   2.110   2.596   3.365
 3780H+     POS 5805   2.932   4.613   2.838
 3781H+     POS 5806   5.278   4.623   2.389
 3782H+     POS 5807   5.226   1.262   5.413
 3783H+     POS 5808   5.487   4.633   1.617
 3784H+     POS 5809   2.578   3.393   5.715
 3785H+     POS 5810   0.126   2.885   4.898
 3786H+     POS 5811   0.173   1.798   1.217
 3787H+     POS 5812   5.013   1.753   5.762
 3788H+     POS 5813   3.159   1.049   2.257
 3789H+     POS 5814   1.611   0.367   1.703
 3790H+     POS 5815   5.671   5.238   5.026
 3791H+     POS 5816   0.823   2.233   3.609
 3792H+     POS 5817   2.352   5.657   2.018
 3793H+     POS 5818   5.560   1.363   1.973
 3794H+     POS 5819   2.450   2.577   1.019
 3795H+     POS 5820   1.388   1.308   1.944
 3796H+     POS 5821   1.276   3.184   0.893
 3797H+     POS 5822   2.196   4.521   1.176
 3798H+     POS 5823   5.624   0.907   2.011
 3799H+     POS 5824   1.761   1.669   4.163
 3800H+     POS 5825   0.318   4.243   2.258
 3801H+     POS 5826   1.661   4.572   0.950
 3802H+     POS 5827   2.288   6.165   1.755
 3803H+     POS 5828   1.674   0.370   4.671
 3804H+     POS 5829   1.102   5.199   6.163
 3805H+     POS 5830   3.010   2.607   5.420
 3806H+     POS 5831   4.140   5.089   4.087
 3807H+     POS 5832   0.351   1.031   1.132
 3808H+     POS 5833   4.161   1.846   1.904
 3809H+     POS 5834   5.019   3.643   3.711
 3810H+     POS 5835   2.321   4.332   2.219
 3811H+     POS 5836   2.276   5.540   3.569
 3812H+     POS 5837   1.450   3.154   2.267
 3813H+     POS 5838   4.650   2.955   1.219
 3814H+     POS 5839   1.152   3.887   0.686
 3815H+     POS 5840   1.564   1.373   4.717
 3816H+     POS 5841   1.788   3.619   1.302
 3817H+     POS 5842   1.532   2.937   5.546
 3818H+     POS 5843   5.859   1.399   4.888
 3819H+     POS 5844   3.785   1.369   0.703
 3820H+     POS 5845   5.078   0.367   0.766
 3821H+     POS 5846   1.623   3.466   0.608
 3822H+     POS 5847   0.749   2.048   1.285
 3823H+     POS 5848   4.336   5.225   5.349
 3824H+     POS 5849   0.363   2.972   2.571
 3825H+     POS 5850   2.439   5.581   1.045
 3826H+     POS 5851   5.906   6.044   2.543
 3827H+     POS 5852   0.199   2.439   2.106
 3828H+     POS 5853   4.525   4.367   6.061
 3829H+     POS 5854   2.831   1.561   5.432
 3830H+     POS 5855   3.599   3.533   2.628
 3831H+     POS 5856   5.099   0.998   1.420
 3832H+     POS 5857   4.380   5.858   0.445
 3833H+     POS 5858   3.516   3.161   2.112
 3834H+     POS 5859   0.859   4.278   3.511
 3835H+     POS 5860   0.474   1.453   5.064
 3836H+     POS 5861   5.251   5.460   4.798
 3837H+     POS 5862   6.012   0.105   0.854
 3838H+     POS 5863   4.348   1.733   5.816
 3839H+     POS 5864   4.614   2.089   5.474
 3840H+     POS 5865   3.466   4.309   2.179
 3841H+     POS 5866   0.475   2.540   4.086
 3842H+     POS 5867   4.141   0.859   0.710
 3843H+     POS 5868   0.529   2.092   1.753
 3844H+     POS 5869   1.712   2.832   4.124
 3845H+     POS 5870   3.626   4.142   1.224
 3846H+     POS 5871   6.055   5.042   5.786
 3847H+     POS 5872   2.496   1.130   4.353
 3848H+     POS 5873   2.580   5.562   1.601
 3849H+     POS 5874   2.011   5.987   5.322
 3850H+     POS 5875   1.881   5.879   5.052
 3851H+     POS 5876   0.121   2.012   1.620
 3852H+     POS 5877   3.169   1.665   4.807
 3853H+     POS 5878   2.582   0.090   0.298
 3854H+     POS 5879   1.245   5.137   0.688
 3855H+     POS 5880   4.030   2.006   6.206
 3856H+     POS 5881   1.386   3.684   3.663
 3857H+     POS 5882   1.371   2.782   4.937
 3858H+     POS 5883   5.733   4.330   3.093
 3859H+     POS 5884   3.005   1.408   3.945
 3860H+     POS 5885   0.291   3.474   1.694
 3861H+     POS 5886   1.872   3.204   4.281
 3862H+     POS 5887   5.477   5.403   0.993
 3863H+     POS 5888   2.094   3.307  -0.084
 3864H+     POS 5889   0.683   3.511   3.733
 3865H+     POS 5890   2.647   2.712   5.837
 3866H+     POS 5891   5.711   4.916   2.719
 3867H+     POS 5892   3.322   0.461   0.828
 3868H+     POS 5893   5.175   5.455   5.960
 3869H+     POS 5894   0.835   1.230   0.462
 3870H+     POS 5895   1.086   4.580   1.995
 3871H+     POS 5896   4.632   3.519   5.020
 3872H+     POS 5897   5.111   1.466   0.822
 3873H+     POS 5898   2.193   3.611   2.670
 3874H+     POS 5899   4.052   3.002   2.799
 3875H+     POS 5900   0.997   5.628   2.848
 3876H+     POS 5901   5.844   1.209   3.876
 3877H+     POS 5902   1.466   0.825   1.518
 3878H+     POS 5903   1.635   4.232   2.448
 3879H+     POS 5904   4.073   4.402   0.902
 3880H+     POS 5905   4.152   5.589   4.603
 3881H+     POS 5906   5.850   1.220   4.638
 3882H+     POS 5907   3.175   0.869   4.029
 3883H+     POS 5908   1.900   4.961   6.136
 3884H+     POS 5909   2.181   2.450   5.736
 3885H+     POS 5910   5.242   0.193   5.323
 3886H+     POS 5911   1.218   5.091   5.591
 3887H+     POS 5912   1.395   3.203   3.169
 3888H+     POS 5913   0.705   2.007   5.365
 3889H+     POS 5914   4.457   2.707   2.192
 3890H+     POS 5915   3.995   5.299   0.939
 3891H+     POS 5916   1.241   6.026   3.395
 3892H+     POS 5917   0.680   0.928   3.407
 3893H+     POS 5918   3.014   2.320   5.328
 3894H+     POS 5919   5.143   2.052   0.948
 3895H+     POS 5920   3.294   5.972   0.623
 3896H+     POS 5921   2.256   1.432   2.945
 3897H+     POS 5922   3.521   4.042   1.768
 3898H+     POS 5923   2.827   2.798   0.916
 3899H+     POS 5924   0.854   6.056   3.134
 3900H+     POS 5925   5.939   2.431   0.155
 3901H+     POS 5926   3.443   4.918   2.592
 3902H+     POS 5927   1.712   1.348   5.935
 3903H+     POS 5928   2.556   1.351   3.472
 3904H+     POS 5929   5.066   3.413   6.082
 3905H+     POS 5930   1.850   3.056   2.598
 3906H+     POS 5931   3.140   0.422   1.247
 3907H+     POS 5932   2.893   5.720   3.197
 3908H+     POS 5933   6.108   3.727   4.896
 3909H+     POS 5934   5.108   0.989   6.271
 3910H+     POS 5935   3.622   5.985   1.165
 3911H+     POS 5936   2.912   4.109   2.318
 3912H+     POS 5937   5.011   2.314   2.798
 3913H+     POS 5938   0.862   6.115   4.563
 3914H+     POS 5939   4.977   1.443   1.815
 3915H+     POS 5940   3.780   5.227   1.562
 3916H+     POS 5941   2.949   3.744   2.117
 3917H+     POS 5942   5.114   2.047   5.555
 3918H+     POS 5943   2.999   0.617   3.665
 3919H+     POS 5944   4.969   6.314   0.861
 3920H+     POS 5945   4.148   3.174   0.279
 3921H+     POS 5946   4.627   5.507   4.673
 3922H+     POS 5947   5.179   4.164   3.349
 3923H+     POS 5948   4.388   4.635   2.481
 3924H+     POS 5949   3.680   4.302   2.322
 3925H+     POS 5950   3.038   2.242   4.874
 3926H+     POS 5951   2.264   4.463   5.436
 3927H+     POS 5952   3.703   1.342   4.418
 3928H+     POS 5953   2.603   5.213   5.874
 3929H+     POS 5954   6.080   0.370   5.845
 3930H+     POS 5955   3.488   1.594   2.640
 3931H+     POS 5956   1.404   2.792   1.014
 3932H+     POS 5957   3.651   3.144   4.360
 3933H+     POS 5958   2.578   4.922   1.322
 3934H+     POS 5959   4.265   4.088   1.135
 3935H+     POS 5960   4.263   0.307   1.436
 3936H+     POS 5961   5.197   4.202   2.861
 3937H+     POS 5962   4.333   4.579   3.019
 3938H+     POS 5963   3.558   2.759   6.038
 3939H+     POS 5964   0.920   1.493   5.756
 3940H+     POS 5965   4.776   5.122   4.914
 3941H+     POS 5966   1.555   0.663   5.822
 3942H+     POS 5967   3.395   2.093   4.239
 3943H+     POS 5968   3.031   0.277   1.778
 3944H+     POS 5969   3.630   0.024   4.902
 3945H+     POS 5970   2.620   1.907   3.973
 3946H+     POS 5971   1.893   0.718   3.651
 3947H+     POS 5972   3.940   0.055   3.077
 3948H+     POS 5973   4.146   2.451   6.213
 3949H+     POS 5974   3.540   3.251   6.059
 3950H+     POS 5975   2.381   3.634   0.553
 3951H+     POS 5976   6.039   3.108   3.582
 3952H+     POS 5977   0.623   2.592   0.371
 3953H+     POS 5978   0.840   3.308   5.214
 3954H+     POS 5979   1.515   2.544   2.101
 3955H+     POS 5980   1.046   4.037   6.159
 3956H+     POS 5981   2.007   5.952   0.970
 3957H+     POS 5982   3.548   1.428   0.361
 3958H+     POS 5983   5.153   2.998   4.419
 3959H+     POS 5984   3.398   0.412   5.891
 3960H+     POS 5985   5.551   0.481   5.331
 3961H+     POS 5986   4.685   4.176   0.724
 3962H+     POS 5987   4.961   3.188   2.597
 3963H+     POS 5988   1.618   5.314   2.983
 3964H+     POS 5989   4.870   3.253   5.512
 3965H+     POS 5990   3.283   3.491   5.544
 3966H+     POS 5991   5.655   4.926   0.213
 3967H+     POS 5992   3.366   0.369   3.359
 3968H+     POS 5993   2.690   1.892   2.310
 3969H+     POS 5994   2.937   3.110   3.662
 3970H+     POS 5995   1.162   0.656   0.059
 3971H+     POS 5996   3.843   2.002   4.483
 3972H+     POS 5997   2.779   3.304   1.841
 3973H+     POS 5998   4.669   1.284   3.903
 3974H+     POS 5999   4.979   2.196   5.988
 3975H+     POS 6000   3.818   4.164   4.791
 3976H+     POS 6001   6.077   4.846   0.531
 3977H+     POS 6002   3.773   5.057   1.089
 3978H+     POS 6003   4.720   4.953   1.170
 3979H+     POS 6004   4.604   3.078   2.090
 3980H+     POS 6005   5.455   4.947   1.103
 3981H+     POS 6006   4.797   0.771   5.409
 3982H+     POS 6007   1.089   4.148   4.340
 3983H+     POS 6008   0.568   2.784   5.125
 3984H+     POS 6009   1.186   5.384   2.242
 3985H+     POS 6010   4.329   2.844   3.715
 3986H+     POS 6011   2.047   3.307   2.423
 3987H+     POS 6012   1.260   3.419   2.659
 3988H+     POS 6013   5.145   0.957   4.973
 3989H+     POS 6014  -0.075   2.811   2.241
 3990H+     POS 6015   5.183   5.854   3.418
 3991H+     POS 6016   4.742   2.365   4.927
 3992H+     POS 6017   2.363   0.750   0.663
 3993H+     POS 6018   1.378   4.382   2.302
 3994H+     POS 6019   1.245   3.922   3.226
 3995H+     POS 6020   1.113   4.434   5.130
 3996H+     POS 6021   4.556   3.192   0.267
 3997H+     POS 6022   0.397   3.961   0.251
 3998H+     POS 6023   0.361   2.196   5.588
 3999H+     POS 6024   1.075   3.632   3.911
 4000H+     POS 6025   4.166   6.244   2.947
 4001H+     POS 6026   3.546   4.762   2.195
 4002H+     POS 6027   3.259   2.753   5.057
 4003H+     POS 6028   4.409   2.562   1.140
 4004H+     POS 6029   5.797   5.020   4.435
 4005H+     POS 6030   0.615   4.741   5.095
 4006H+     POS 6031   5.016   3.317   4.949
 4007H+     POS 6032   4.585   4.647   4.891
 4008H+     POS 6033   4.005   4.933   4.414
 4009H+     POS 6034   4.206   5.460   6.041
 4010H+     POS 6035   4.351   2.528   6.144
 4011H+     POS 6036   1.373   2.007  -0.075
 4012H+     POS 6037   5.038   2.913   5.150
 4013H+     POS 6038   6.050   6.131   3.550
 4014H+     POS 6039   1.528   5.082   4.112
 4015H+     POS 6040   0.758   0.289   4.415
 4016H+     POS 6041   1.435   2.049   2.823
 4017H+     POS 6042   1.971   3.935   5.819
 4018H+     POS 6043   2.104   0.469   3.408
 4019H+     POS 6044   3.167   2.922   2.954
 4020H+     POS 6045   5.869   5.774   0.194
 4021H+     POS 6046   1.350   1.691   2.387
 4022H+     POS 6047   2.343   5.104   0.747
 4023H+     POS 6048   4.927   0.956   4.226
 4024H+     POS 6049   1.494   3.595   1.879
 4025H+     POS 6050   4.738   1.071   0.829
 4026H+     POS 6051   2.843   3.646   2.928
 4027H+     POS 6052   5.798   1.343   2.784
 4028H+     POS 6053   4.778   4.217   2.660
 4029H+     POS 6054   6.069   5.385   2.552
 4030H+     POS 6055   3.877   5.828   5.369
 4031H+     POS 6056   6.206   4.388   3.595
 4032H+     POS 6057   1.033   0.447   2.575
 4033H+     POS 6058   5.067   2.697   2.730
 4034H+     POS 6059   1.095   1.515   0.984
 4035H+     POS 6060   5.592   4.795   5.477
 4036H+     POS 6061   1.087   2.302   0.254
 4037H+     POS 6062   0.452   5.047   1.584
 4038H+     POS 6063   5.838   5.026   0.194
 4039H+     POS 6064   0.951   4.121   2.952
 4040H+     POS 6065   2.684   2.006   4.763
 4041H+     POS 6066   1.447   5.917   3.529
 4042H+     POS 6067   3.319   0.706   5.674
 4043H+     POS 6068   3.041   6.000   4.173
       6.230   6.230   6.230
