; martini_titratable_full.itp — AUTO-GENERATED by physics_design/build_titratable_ff.py
; Complete titratable Martini 3 FF for IAJD apparent-pKa (Module A). Standard Martini 3
; matrix + Grunewald titratable extensions + parent-synthesized titratable x IAJD-bead
; cross terms. Beads=41  nonbond_pairs=631  synthesized=61
; DO NOT EDIT BY HAND — regenerate with: python -m physics_design.build_titratable_ff

[ defaults ]
1 2

[ atomtypes ]
C1           72.0 0.000 A 0.0 0.0
C4           72.0 0.000 A 0.0 0.0
C4h          72.0 0.000 A 0.0 0.0
DA1          24.0 0.000 A 0.0 0.0
DA2          24.0 0.000 A 0.0 0.0
DB1          24.0 0.000 A 0.0 0.0
DB2          24.0 0.000 A 0.0 0.0
DB3          24.0 0.000 A 0.0 0.0
DB4          24.0 0.000 A 0.0 0.0
DW           24.0 0.000 A 0.0 0.0
N2_10.2      24.0 0.000 A 0.0 0.0
N4a          72.0 0.000 A 0.0 0.0
N5a          72.0 0.000 A 0.0 0.0
N5d_10.8F    24.0 0.000 A 0.0 0.0
N5d_10.8R    24.0 0.000 A 0.0 0.0
N6d          72.0 0.000 A 0.0 0.0
P1           72.0 0.000 A 0.0 0.0
P2_4.0       24.0 0.000 A 0.0 0.0
P2_4.8       24.0 0.000 A 0.0 0.0
POS          24.0 0.000 A 0.0 0.0
Q1p          72.0 0.000 A 0.0 0.0
Q5n          72.0 0.000 A 0.0 0.0
SC1          54.0 0.000 A 0.0 0.0
SC2          54.0 0.000 A 0.0 0.0
SC3          54.0 0.000 A 0.0 0.0
SC5          54.0 0.000 A 0.0 0.0
SC6          54.0 0.000 A 0.0 0.0
SN4a         54.0 0.000 A 0.0 0.0
SN6d_10.6F   24.0 0.000 A 0.0 0.0
SN6d_10.6R   24.0 0.000 A 0.0 0.0
SN6d_4.8     24.0 0.000 A 0.0 0.0
SN6d_6.0     24.0 0.000 A 0.0 0.0
SP1          54.0 0.000 A 0.0 0.0
SX2          54.0 0.000 A 0.0 0.0
TC1          36.0 0.000 A 0.0 0.0
TC2          36.0 0.000 A 0.0 0.0
TC4          36.0 0.000 A 0.0 0.0
TC5          36.0 0.000 A 0.0 0.0
TN3d         36.0 0.000 A 0.0 0.0
WNT          24.0 0.000 A 0.0 0.0
X2           72.0 0.000 A 0.0 0.0

[ nonbond_params ]
C1           C1           1 4.700000E-01 3.390000E+00
C1           C4           1 4.700000E-01 3.070000E+00
C1           C4h          1 4.700000E-01 3.070000E+00
C1           N2_10.2      1 4.700000E-01 2.960000E+00
C1           N4a          1 4.700000E-01 2.790000E+00
C1           N5a          1 4.700000e-01 2.790000e+00
C1           N5d_10.8F    1 4.700000E-01 2.790000E+00
C1           N5d_10.8R    1 4.700000E-01 2.790000E+00
C1           N6d          1 4.700000e-01 2.790000e+00
C1           P1           1 4.700000e-01 2.620000e+00
C1           P2_4.0       1 4.700000E-01 2.620000E+00
C1           P2_4.8       1 4.700000E-01 2.620000E+00
C1           Q1p          1 4.850000E-01 2.539854E+00
C1           Q5n          1 6.200000E-01 2.038057E+00
C1           SC1          1 4.300000e-01 2.920000e+00
C1           SC2          1 4.300000E-01 3.170000E+00
C1           SC3          1 4.300000E-01 2.970000E+00
C1           SC5          1 4.300000E-01 2.530000E+00
C1           SC6          1 4.300000E-01 2.330000E+00
C1           SN4a         1 4.300000E-01 2.150000E+00
C1           SN6d_10.6F   1 4.300000E-01 2.150000E+00
C1           SN6d_10.6R   1 4.300000E-01 2.150000E+00
C1           SN6d_4.8     1 4.300000E-01 2.150000E+00
C1           SN6d_6.0     1 4.300000E-01 2.150000E+00
C1           SP1          1 4.300000e-01 1.930000e+00
C1           SX2          1 4.300000E-01 2.530000E+00
C1           TC1          1 3.950000e-01 2.310000e+00
C1           TC2          1 3.950000E-01 2.500000E+00
C1           TC4          1 3.950000E-01 1.830000E+00
C1           TC5          1 3.950000E-01 1.830000E+00
C1           TN3d         1 3.950000E-01 1.650000E+00
C1           WNT          1 4.700000E-01 2.060000E+00
C1           X2           1 4.700000E-01 3.070000E+00
C4           C4           1 4.700000E-01 3.390000E+00
C4           C4h          1 4.700000E-01 3.390000E+00
C4           N2_10.2      1 4.700000E-01 3.240000E+00
C4           N4a          1 4.700000E-01 3.070000E+00
C4           N5a          1 4.700000e-01 3.070000e+00
C4           N5d_10.8F    1 4.700000E-01 3.070000E+00
C4           N5d_10.8R    1 4.700000E-01 3.070000E+00
C4           N6d          1 4.700000e-01 3.070000e+00
C4           P1           1 4.700000e-01 2.960000e+00
C4           P2_4.0       1 4.700000E-01 2.960000E+00
C4           P2_4.8       1 4.700000E-01 2.960000E+00
C4           Q1p          1 4.700000E-01 3.753596E+00
C4           Q5n          1 4.850000E-01 2.623247E+00
C4           SC1          1 4.300000e-01 2.530000e+00
C4           SC2          1 4.300000E-01 2.780000E+00
C4           SC3          1 4.300000E-01 2.970000E+00
C4           SC5          1 4.300000E-01 2.970000E+00
C4           SC6          1 4.300000E-01 2.970000E+00
C4           SN4a         1 4.300000E-01 2.530000E+00
C4           SN6d_10.6F   1 4.300000E-01 2.530000E+00
C4           SN6d_10.6R   1 4.300000E-01 2.530000E+00
C4           SN6d_4.8     1 4.300000E-01 2.530000E+00
C4           SN6d_6.0     1 4.300000E-01 2.530000E+00
C4           SP1          1 4.300000e-01 2.320000e+00
C4           SX2          1 4.300000E-01 2.780000E+00
C4           TC1          1 3.950000e-01 1.850000e+00
C4           TC2          1 3.950000E-01 2.100000E+00
C4           TC4          1 3.950000E-01 2.310000E+00
C4           TC5          1 3.950000E-01 2.310000E+00
C4           TN3d         1 3.950000E-01 1.830000E+00
C4           WNT          1 4.650000E-01 2.390000E+00
C4           X2           1 4.700000E-01 3.240000E+00
C4h          C4h          1 4.700000E-01 3.530000E+00
C4h          N2_10.2      1 4.700000E-01 3.240000E+00
C4h          N4a          1 4.700000E-01 3.070000E+00
C4h          N5a          1 4.700000e-01 3.070000e+00
C4h          N5d_10.8F    1 4.700000E-01 3.070000E+00
C4h          N5d_10.8R    1 4.700000E-01 3.070000E+00
C4h          N6d          1 4.700000e-01 3.070000e+00
C4h          P1           1 4.700000e-01 2.960000e+00
C4h          P2_4.0       1 4.700000E-01 2.960000E+00
C4h          P2_4.8       1 4.700000E-01 2.960000E+00
C4h          Q1p          1 4.700000E-01 3.753596E+00
C4h          Q5n          1 4.850000E-01 2.623247E+00
C4h          SC1          1 4.300000e-01 2.530000e+00
C4h          SC2          1 4.300000E-01 2.780000E+00
C4h          SC3          1 4.300000E-01 2.970000E+00
C4h          SC5          1 4.300000E-01 2.970000E+00
C4h          SC6          1 4.300000E-01 2.970000E+00
C4h          SN4a         1 4.300000E-01 2.530000E+00
C4h          SN6d_10.6F   1 4.300000E-01 2.530000E+00
C4h          SN6d_10.6R   1 4.300000E-01 2.530000E+00
C4h          SN6d_4.8     1 4.300000E-01 2.530000E+00
C4h          SN6d_6.0     1 4.300000E-01 2.530000E+00
C4h          SP1          1 4.300000e-01 2.320000e+00
C4h          SX2          1 4.300000E-01 2.780000E+00
C4h          TC1          1 3.950000e-01 1.850000e+00
C4h          TC2          1 3.950000E-01 2.100000E+00
C4h          TC4          1 3.950000E-01 2.310000E+00
C4h          TC5          1 3.950000E-01 2.310000E+00
C4h          TN3d         1 3.950000E-01 1.830000E+00
C4h          WNT          1 4.650000E-01 2.390000E+00
C4h          X2           1 4.700000E-01 3.240000E+00
DA1          DA2          1 3.500000E-01 1.000000E+00
DA1          DB2          1 3.500000E-01 1.000000E+00
DA1          DB3          1 3.276000E-01 1.000000E+00
DA1          P2_4.0       1 3.500000E-01 1.000000E+00
DA1          P2_4.8       1 3.500000E-01 1.000000E+00
DA1          POS          1 3.500000E-01 1.000000E+00
DA1          Q1p          1 3.660000E-01 1.000000E+00
DA2          DB1          1 3.500000E-01 1.000000E+00
DA2          DB4          1 3.276000E-01 1.000000E+00
DA2          DW           1 3.500000E-01 1.000000E+00
DA2          N2_10.2      1 3.500000E-01 1.000000E+00
DA2          N5d_10.8F    1 3.500000E-01 1.000000E+00
DA2          N5d_10.8R    1 3.500000E-01 1.000000E+00
DA2          Q5n          1 3.660000E-01 1.000000E+00
DA2          SN6d_10.6F   1 3.276000E-01 1.000000E+00
DA2          SN6d_10.6R   1 3.276000E-01 1.000000E+00
DA2          SN6d_4.8     1 3.276000E-01 1.000000E+00
DA2          SN6d_6.0     1 3.276000E-01 1.000000E+00
DB1          DB2          1 3.500000E-01 1.000000E+00
DB1          DB3          1 3.276000E-01 1.000000E+00
DB1          P2_4.0       1 3.500000E-01 1.000000E+00
DB1          P2_4.8       1 3.500000E-01 1.000000E+00
DB1          POS          1 3.500000E-01 1.000000E+00
DB1          Q1p          1 3.660000E-01 1.000000E+00
DB2          DB4          1 3.276000E-01 1.000000E+00
DB2          DW           1 3.500000E-01 1.000000E+00
DB2          N2_10.2      1 3.500000E-01 1.000000E+00
DB2          N5d_10.8F    1 3.500000E-01 1.000000E+00
DB2          N5d_10.8R    1 3.500000E-01 1.000000E+00
DB2          Q5n          1 3.660000E-01 1.000000E+00
DB2          SN6d_10.6F   1 3.276000E-01 1.000000E+00
DB2          SN6d_10.6R   1 3.276000E-01 1.000000E+00
DB2          SN6d_4.8     1 3.276000E-01 1.000000E+00
DB2          SN6d_6.0     1 3.276000E-01 1.000000E+00
DB3          DB4          1 1.870000E-01 1.000000E+00
DB3          DW           1 3.276000E-01 1.000000E+00
DB3          N2_10.2      1 3.276000E-01 1.000000E+00
DB3          N5d_10.8F    1 3.276000E-01 1.000000E+00
DB3          N5d_10.8R    1 3.276000E-01 1.000000E+00
DB3          Q5n          1 3.334000E-01 1.000000E+00
DB3          SN6d_10.6F   1 3.053000E-01 1.000000E+00
DB3          SN6d_10.6R   1 3.053000E-01 1.000000E+00
DB3          SN6d_4.8     1 3.053000E-01 1.000000E+00
DB3          SN6d_6.0     1 3.053000E-01 1.000000E+00
DB4          N2_10.2      1 3.500000E-01 1.000000E+00
DB4          N5d_10.8F    1 3.500000E-01 1.000000E+00
DB4          N5d_10.8R    1 3.500000E-01 1.000000E+00
DB4          P2_4.0       1 3.500000E-01 1.000000E+00
DB4          P2_4.8       1 3.500000E-01 1.000000E+00
DB4          POS          1 3.276000E-01 1.000000E+00
DB4          Q1p          1 3.334000E-01 1.000000E+00
DB4          SN6d_10.6F   1 3.276000E-01 1.000000E+00
DB4          SN6d_10.6R   1 3.276000E-01 1.000000E+00
DB4          SN6d_4.8     1 3.276000E-01 1.000000E+00
DB4          SN6d_6.0     1 3.276000E-01 1.000000E+00
DW           P2_4.0       1 3.500000E-01 1.000000E+00
DW           P2_4.8       1 3.500000E-01 1.000000E+00
DW           POS          1 3.500000E-01 1.000000E+00
DW           Q1p          1 3.660000E-01 1.000000E+00
N2_10.2      N2_10.2      1 4.700000E-01 8.000000E-01
N2_10.2      N4a          1 4.700000E-01 3.530000E+00
N2_10.2      N5a          1 4.700000e-01 3.520000e+00   ; SYNTH parent N2xN5a
N2_10.2      N5d_10.8F    1 4.700000E-01 8.000000E-01
N2_10.2      N5d_10.8R    1 4.700000E-01 8.000000E-01
N2_10.2      N6d          1 4.700000e-01 3.390000e+00   ; SYNTH parent N2xN6d
N2_10.2      P1           1 4.700000e-01 3.390000e+00   ; SYNTH parent N2xP1
N2_10.2      P2_4.0       1 4.700000E-01 8.000000E-01
N2_10.2      P2_4.8       1 4.700000E-01 8.000000E-01
N2_10.2      POS          1 1.520000E-01 8.000000E+00
N2_10.2      Q1p          1 4.700000E-01 2.547425E+00
N2_10.2      Q5n          1 4.700000E-01 1.858749E+00
N2_10.2      SC1          1 4.300000e-01 2.320000e+00   ; SYNTH parent N2xSC1
N2_10.2      SC2          1 4.300000E-01 2.530000E+00
N2_10.2      SC3          1 4.300000E-01 2.780000E+00
N2_10.2      SC5          1 4.300000E-01 2.780000E+00
N2_10.2      SC6          1 4.300000E-01 2.970000E+00
N2_10.2      SN4a         1 4.300000E-01 3.170000E+00
N2_10.2      SN6d_10.6F   1 4.300000E-01 1.000000E+00
N2_10.2      SN6d_10.6R   1 4.300000E-01 1.000000E+00
N2_10.2      SN6d_4.8     1 4.300000E-01 1.000000E+00
N2_10.2      SN6d_6.0     1 4.300000E-01 1.000000E+00
N2_10.2      SP1          1 4.300000e-01 2.920000e+00   ; SYNTH parent N2xSP1
N2_10.2      SX2          1 4.300000E-01 2.780000E+00
N2_10.2      TC1          1 3.950000e-01 1.670000e+00   ; SYNTH parent N2xTC1
N2_10.2      TC2          1 3.950000E-01 1.830000E+00
N2_10.2      TC4          1 3.950000E-01 2.100000E+00
N2_10.2      TC5          1 3.950000E-01 2.100000E+00
N2_10.2      TN3d         1 3.950000E-01 2.500000E+00
N2_10.2      WNT          1 4.700000E-01 5.000000E-01
N2_10.2      X2           1 4.700000E-01 3.240000E+00
N4a          N4a          1 4.700000E-01 3.390000E+00
N4a          N5a          1 4.700000e-01 3.390000e+00
N4a          N5d_10.8F    1 4.700000E-01 3.690000E+00
N4a          N5d_10.8R    1 4.700000E-01 3.690000E+00
N4a          N6d          1 4.700000e-01 3.880000e+00
N4a          P1           1 4.700000e-01 3.690000e+00
N4a          P2_4.0       1 4.700000E-01 3.530000E+00
N4a          P2_4.8       1 4.700000E-01 3.530000E+00
N4a          Q1p          1 4.700000E-01 4.707470E+00
N4a          Q5n          1 4.700000E-01 4.865591E+00
N4a          SC1          1 4.300000e-01 2.160000e+00
N4a          SC2          1 4.300000E-01 2.330000E+00
N4a          SC3          1 4.300000E-01 2.530000E+00
N4a          SC5          1 4.300000E-01 2.780000E+00
N4a          SC6          1 4.300000E-01 2.970000E+00
N4a          SN4a         1 4.300000E-01 2.970000E+00
N4a          SN6d_10.6F   1 4.300000E-01 3.380000E+00
N4a          SN6d_10.6R   1 4.300000E-01 3.380000E+00
N4a          SN6d_4.8     1 4.300000E-01 3.380000E+00
N4a          SN6d_6.0     1 4.300000E-01 3.380000E+00
N4a          SP1          1 4.300000e-01 3.380000e+00
N4a          SX2          1 4.300000E-01 2.780000E+00
N4a          TC1          1 3.980000e-01 1.450000e+00
N4a          TC2          1 3.950000E-01 1.650000E+00
N4a          TC4          1 3.950000E-01 1.830000E+00
N4a          TC5          1 3.950000E-01 2.100000E+00
N4a          TN3d         1 3.950000E-01 2.700000E+00
N4a          WNT          1 4.650000E-01 3.500000E+00
N4a          X2           1 4.700000E-01 3.240000E+00
N5a          N5a          1 4.700000e-01 3.390000e+00
N5a          N5d_10.8F    1 4.700000e-01 3.690000e+00   ; SYNTH parent N5axN5d
N5a          N5d_10.8R    1 4.700000e-01 3.690000e+00   ; SYNTH parent N5axN5d
N5a          N6d          1 4.700000e-01 3.880000e+00
N5a          P1           1 4.700000e-01 3.690000e+00
N5a          P2_4.0       1 4.700000e-01 3.690000e+00   ; SYNTH parent N5axP2
N5a          P2_4.8       1 4.700000e-01 3.690000e+00   ; SYNTH parent N5axP2
N5a          Q1p          1 4.700000e-01 4.921000e+00
N5a          Q5n          1 4.700000e-01 4.530000e+00
N5a          SC1          1 4.300000e-01 2.160000e+00
N5a          SC2          1 4.300000e-01 2.320000e+00
N5a          SC3          1 4.300000e-01 2.530000e+00
N5a          SC5          1 4.300000e-01 2.770000e+00
N5a          SC6          1 4.300000e-01 2.920000e+00
N5a          SN4a         1 4.300000e-01 2.930000e+00
N5a          SN6d_10.6F   1 4.300000e-01 3.590000e+00   ; SYNTH parent N5axSN6d
N5a          SN6d_10.6R   1 4.300000e-01 3.590000e+00   ; SYNTH parent N5axSN6d
N5a          SN6d_4.8     1 4.300000e-01 3.590000e+00   ; SYNTH parent N5axSN6d
N5a          SN6d_6.0     1 4.300000e-01 3.590000e+00   ; SYNTH parent N5axSN6d
N5a          SP1          1 4.300000e-01 3.380000e+00
N5a          SX2          1 4.300000e-01 2.770000e+00
N5a          TC1          1 3.980000e-01 1.450000e+00
N5a          TC2          1 3.950000e-01 1.670000e+00
N5a          TC4          1 3.950000e-01 1.850000e+00
N5a          TC5          1 3.950000e-01 2.110000e+00
N5a          TN3d         1 3.950000e-01 2.700000e+00
N5a          WNT          1 4.650000e-01 3.700000e+00   ; SYNTH parent N5axW
N5a          X2           1 4.700000e-01 3.240000e+00
N5d_10.8F    N5d_10.8F    1 4.700000E-01 8.000000E-01
N5d_10.8F    N5d_10.8R    1 4.700000E-01 8.000000E-01
N5d_10.8F    N6d          1 4.700000e-01 3.520000e+00   ; SYNTH parent N5dxN6d
N5d_10.8F    P1           1 4.700000e-01 3.690000e+00   ; SYNTH parent N5dxP1
N5d_10.8F    P2_4.0       1 4.700000E-01 8.000000E-01
N5d_10.8F    P2_4.8       1 4.700000E-01 8.000000E-01
N5d_10.8F    POS          1 1.480000E-01 8.000000E+00
N5d_10.8F    Q1p          1 4.700000E-01 2.753305E+00
N5d_10.8F    Q5n          1 4.700000E-01 2.278243E+00
N5d_10.8F    SC1          1 4.300000e-01 2.160000e+00   ; SYNTH parent N5dxSC1
N5d_10.8F    SC2          1 4.300000E-01 2.330000E+00
N5d_10.8F    SC3          1 4.300000E-01 2.530000E+00
N5d_10.8F    SC5          1 4.300000E-01 2.780000E+00
N5d_10.8F    SC6          1 4.300000E-01 2.970000E+00
N5d_10.8F    SN4a         1 4.300000E-01 3.380000E+00
N5d_10.8F    SN6d_10.6F   1 4.300000E-01 1.000000E+00
N5d_10.8F    SN6d_10.6R   1 4.300000E-01 1.000000E+00
N5d_10.8F    SN6d_4.8     1 4.300000E-01 1.000000E+00
N5d_10.8F    SN6d_6.0     1 4.300000E-01 1.000000E+00
N5d_10.8F    SP1          1 4.300000e-01 3.380000e+00   ; SYNTH parent N5dxSP1
N5d_10.8F    SX2          1 4.300000E-01 2.780000E+00
N5d_10.8F    TC1          1 3.980000e-01 1.450000e+00   ; SYNTH parent N5dxTC1
N5d_10.8F    TC2          1 3.950000E-01 1.650000E+00
N5d_10.8F    TC4          1 3.950000E-01 1.830000E+00
N5d_10.8F    TC5          1 3.950000E-01 2.100000E+00
N5d_10.8F    TN3d         1 3.950000E-01 2.310000E+00
N5d_10.8F    WNT          1 4.700000E-01 1.450000E+00
N5d_10.8F    X2           1 4.700000E-01 3.240000E+00
N5d_10.8R    N5d_10.8R    1 4.700000E-01 8.000000E-01
N5d_10.8R    N6d          1 4.700000e-01 3.520000e+00   ; SYNTH parent N5dxN6d
N5d_10.8R    P1           1 4.700000e-01 3.690000e+00   ; SYNTH parent N5dxP1
N5d_10.8R    P2_4.0       1 4.700000E-01 8.000000E-01
N5d_10.8R    P2_4.8       1 4.700000E-01 8.000000E-01
N5d_10.8R    Q1p          1 4.700000E-01 2.753305E+00
N5d_10.8R    Q5n          1 4.700000E-01 2.278243E+00
N5d_10.8R    SC1          1 4.300000e-01 2.160000e+00   ; SYNTH parent N5dxSC1
N5d_10.8R    SC2          1 4.300000E-01 2.330000E+00
N5d_10.8R    SC3          1 4.300000E-01 2.530000E+00
N5d_10.8R    SC5          1 4.300000E-01 2.780000E+00
N5d_10.8R    SC6          1 4.300000E-01 2.970000E+00
N5d_10.8R    SN4a         1 4.300000E-01 3.380000E+00
N5d_10.8R    SN6d_10.6F   1 4.300000E-01 1.000000E+00
N5d_10.8R    SN6d_10.6R   1 4.300000E-01 1.000000E+00
N5d_10.8R    SN6d_4.8     1 4.300000E-01 1.000000E+00
N5d_10.8R    SN6d_6.0     1 4.300000E-01 1.000000E+00
N5d_10.8R    SP1          1 4.300000e-01 3.380000e+00   ; SYNTH parent N5dxSP1
N5d_10.8R    SX2          1 4.300000E-01 2.780000E+00
N5d_10.8R    TC1          1 3.980000e-01 1.450000e+00   ; SYNTH parent N5dxTC1
N5d_10.8R    TC2          1 3.950000E-01 1.650000E+00
N5d_10.8R    TC4          1 3.950000E-01 1.830000E+00
N5d_10.8R    TC5          1 3.950000E-01 2.100000E+00
N5d_10.8R    TN3d         1 3.950000E-01 2.310000E+00
N5d_10.8R    WNT          1 4.700000E-01 3.200000E+00
N5d_10.8R    X2           1 4.700000E-01 3.240000E+00
N6d          N6d          1 4.700000e-01 3.520000e+00
N6d          P1           1 4.700000e-01 3.880000e+00
N6d          P2_4.0       1 4.700000e-01 3.880000e+00   ; SYNTH parent N6dxP2
N6d          P2_4.8       1 4.700000e-01 3.880000e+00   ; SYNTH parent N6dxP2
N6d          Q1p          1 4.700000e-01 4.556000e+00
N6d          Q5n          1 4.700000e-01 5.391000e+00
N6d          SC1          1 4.300000e-01 2.160000e+00
N6d          SC2          1 4.300000e-01 2.320000e+00
N6d          SC3          1 4.300000e-01 2.320000e+00
N6d          SC5          1 4.300000e-01 2.770000e+00
N6d          SC6          1 4.300000e-01 2.920000e+00
N6d          SN4a         1 4.300000e-01 3.590000e+00
N6d          SN6d_10.6F   1 4.300000e-01 3.160000e+00   ; SYNTH parent N6dxSN6d
N6d          SN6d_10.6R   1 4.300000e-01 3.160000e+00   ; SYNTH parent N6dxSN6d
N6d          SN6d_4.8     1 4.300000e-01 3.160000e+00   ; SYNTH parent N6dxSN6d
N6d          SN6d_6.0     1 4.300000e-01 3.160000e+00   ; SYNTH parent N6dxSN6d
N6d          SP1          1 4.300000e-01 3.590000e+00
N6d          SX2          1 4.300000e-01 2.530000e+00
N6d          TC1          1 3.980000e-01 1.450000e+00
N6d          TC2          1 3.950000e-01 1.670000e+00
N6d          TC4          1 3.950000e-01 1.850000e+00
N6d          TC5          1 3.950000e-01 2.110000e+00
N6d          TN3d         1 3.950000e-01 2.310000e+00
N6d          WNT          1 4.650000e-01 3.950000e+00   ; SYNTH parent N6dxW
N6d          X2           1 4.700000e-01 3.070000e+00
P1           P1           1 4.700000e-01 3.880000e+00
P1           P2_4.0       1 4.700000e-01 3.880000e+00   ; SYNTH parent P1xP2
P1           P2_4.8       1 4.700000e-01 3.880000e+00   ; SYNTH parent P1xP2
P1           Q1p          1 4.700000e-01 4.929000e+00
P1           Q5n          1 4.700000e-01 5.400000e+00
P1           SC1          1 4.300000e-01 1.930000e+00
P1           SC2          1 4.300000e-01 2.160000e+00
P1           SC3          1 4.300000e-01 2.160000e+00
P1           SC5          1 4.300000e-01 2.530000e+00
P1           SC6          1 4.300000e-01 2.770000e+00
P1           SN4a         1 4.300000e-01 3.380000e+00
P1           SN6d_10.6F   1 4.300000e-01 3.590000e+00   ; SYNTH parent P1xSN6d
P1           SN6d_10.6R   1 4.300000e-01 3.590000e+00   ; SYNTH parent P1xSN6d
P1           SN6d_4.8     1 4.300000e-01 3.590000e+00   ; SYNTH parent P1xSN6d
P1           SN6d_6.0     1 4.300000e-01 3.590000e+00   ; SYNTH parent P1xSN6d
P1           SP1          1 4.300000e-01 3.590000e+00
P1           SX2          1 4.300000e-01 2.530000e+00
P1           TC1          1 3.990000e-01 1.180000e+00
P1           TC2          1 3.980000e-01 1.450000e+00
P1           TC4          1 3.950000e-01 1.670000e+00
P1           TC5          1 3.950000e-01 1.850000e+00
P1           TN3d         1 3.950000e-01 2.310000e+00
P1           WNT          1 4.650000e-01 4.140000e+00   ; SYNTH parent P1xW
P1           X2           1 4.700000e-01 3.070000e+00
P2_4.0       P2_4.0       1 4.700000E-01 1.000000E+00
P2_4.0       P2_4.8       1 4.700000E-01 1.000000E+00
P2_4.0       POS          1 2.400000E-01 3.000000E+00
P2_4.0       Q1p          1 4.700000E-01 2.955740E+00
P2_4.0       Q5n          1 4.700000E-01 2.796100E+00
P2_4.0       SC1          1 4.300000e-01 1.930000e+00   ; SYNTH parent P2xSC1
P2_4.0       SC2          1 4.300000E-01 2.150000E+00
P2_4.0       SC3          1 4.300000E-01 2.150000E+00
P2_4.0       SC5          1 4.300000E-01 2.530000E+00
P2_4.0       SC6          1 4.300000E-01 2.780000E+00
P2_4.0       SN4a         1 4.300000E-01 3.170000E+00
P2_4.0       SN6d_10.6F   1 4.300000E-01 1.000000E+00
P2_4.0       SN6d_10.6R   1 4.300000E-01 1.000000E+00
P2_4.0       SN6d_4.8     1 4.300000E-01 1.000000E+00
P2_4.0       SN6d_6.0     1 4.300000E-01 1.000000E+00
P2_4.0       SP1          1 4.300000e-01 3.590000e+00   ; SYNTH parent P2xSP1
P2_4.0       SX2          1 4.300000E-01 2.530000E+00
P2_4.0       TC1          1 3.990000e-01 1.180000e+00   ; SYNTH parent P2xTC1
P2_4.0       TC2          1 4.010000E-01 1.400000E+00
P2_4.0       TC4          1 3.950000E-01 1.650000E+00
P2_4.0       TC5          1 3.950000E-01 1.830000E+00
P2_4.0       TN3d         1 3.950000E-01 2.310000E+00
P2_4.0       WNT          1 4.650000e-01 4.330000e+00   ; SYNTH parent P2xW
P2_4.0       X2           1 4.700000E-01 3.070000E+00
P2_4.8       P2_4.8       1 4.700000E-01 1.000000E+00
P2_4.8       POS          1 2.000000E-01 3.000000E+00
P2_4.8       Q1p          1 4.700000E-01 2.955740E+00
P2_4.8       Q5n          1 4.700000E-01 2.796100E+00
P2_4.8       SC1          1 4.300000e-01 1.930000e+00   ; SYNTH parent P2xSC1
P2_4.8       SC2          1 4.300000E-01 2.150000E+00
P2_4.8       SC3          1 4.300000E-01 2.150000E+00
P2_4.8       SC5          1 4.300000E-01 2.530000E+00
P2_4.8       SC6          1 4.300000E-01 2.780000E+00
P2_4.8       SN4a         1 4.300000E-01 3.170000E+00
P2_4.8       SN6d_10.6F   1 4.300000E-01 1.000000E+00
P2_4.8       SN6d_10.6R   1 4.300000E-01 1.000000E+00
P2_4.8       SN6d_4.8     1 4.300000E-01 1.000000E+00
P2_4.8       SN6d_6.0     1 4.300000E-01 1.000000E+00
P2_4.8       SP1          1 4.300000e-01 3.590000e+00   ; SYNTH parent P2xSP1
P2_4.8       SX2          1 4.300000E-01 2.530000E+00
P2_4.8       TC1          1 3.990000e-01 1.180000e+00   ; SYNTH parent P2xTC1
P2_4.8       TC2          1 4.010000E-01 1.400000E+00
P2_4.8       TC4          1 3.950000E-01 1.650000E+00
P2_4.8       TC5          1 3.950000E-01 1.830000E+00
P2_4.8       TN3d         1 3.950000E-01 2.310000E+00
P2_4.8       WNT          1 4.700000E-01 1.700000E+00
P2_4.8       X2           1 4.700000E-01 3.070000E+00
POS          Q1p          1 3.660000E-01 1.000000E+00
POS          Q5n          1 3.660000E-01 1.000000E+00
POS          SN6d_10.6F   1 1.380000E-01 1.200000E+01
POS          SN6d_10.6R   1 1.380000E-01 1.200000E+01
POS          SN6d_4.8     1 2.100000E-01 3.000000E+00
POS          SN6d_6.0     1 1.900000E-01 3.000000E+00
POS          WNT          1 1.660000E-01 3.434000E+01
Q1p          Q1p          1 4.700000e-01 1.000000e+00
Q1p          Q5n          1 4.700000e-01 4.200000e+00
Q1p          SC1          1 4.300000e-01 1.972000e+00
Q1p          SC2          1 4.450000E-01 1.630407E+00
Q1p          SC3          1 4.300000E-01 2.798156E+00
Q1p          SC5          1 4.300000E-01 3.301588E+00
Q1p          SC6          1 4.300000E-01 3.727058E+00
Q1p          SN4a         1 4.300000E-01 4.157270E+00
Q1p          SN6d_10.6F   1 4.300000E-01 2.401904E+00
Q1p          SN6d_10.6R   1 4.300000E-01 2.401904E+00
Q1p          SN6d_4.8     1 4.300000E-01 2.401904E+00
Q1p          SN6d_6.0     1 4.300000E-01 2.401904E+00
Q1p          SP1          1 4.300000e-01 4.443000e+00
Q1p          SX2          1 4.300000E-01 2.851145E+00
Q1p          TC1          1 4.010000e-01 1.227000e+00
Q1p          TC2          1 4.130000E-01 9.467895E-01
Q1p          TC4          1 3.950000E-01 2.332922E+00
Q1p          TC5          1 3.950000E-01 2.559439E+00
Q1p          TN3d         1 3.950000E-01 3.474762E+00
Q1p          WNT          1 4.700000E-01 3.200000E+00
Q1p          X2           1 4.700000E-01 3.605025E+00
Q5n          Q5n          1 4.700000e-01 1.000000e+00
Q5n          SC1          1 5.520000e-01 1.066000e+00
Q5n          SC2          1 5.380000E-01 1.091154E+00
Q5n          SC3          1 4.740000E-01 1.419076E+00
Q5n          SC5          1 4.300000E-01 1.903924E+00
Q5n          SC6          1 4.300000E-01 2.425665E+00
Q5n          SN4a         1 4.300000E-01 4.313024E+00
Q5n          SN6d_10.6F   1 4.300000E-01 2.801904E+00
Q5n          SN6d_10.6R   1 4.300000E-01 2.801904E+00
Q5n          SN6d_4.8     1 4.300000E-01 2.801904E+00
Q5n          SN6d_6.0     1 4.300000E-01 2.801904E+00
Q5n          SP1          1 4.300000e-01 4.839000e+00
Q5n          SX2          1 4.300000E-01 2.089599E+00
Q5n          TC1          1 5.240000e-01 6.450000e-01
Q5n          TC2          1 5.200000E-01 6.844263E-01
Q5n          TC4          1 4.130000E-01 9.219568E-01
Q5n          TC5          1 4.080000E-01 1.097617E+00
Q5n          TN3d         1 3.950000E-01 3.420149E+00
Q5n          WNT          1 4.700000E-01 3.600000E+00
Q5n          X2           1 4.700000E-01 3.058774E+00
SC1          SC1          1 4.100000e-01 2.350000e+00
SC1          SC2          1 4.100000e-01 2.600000e+00
SC1          SC3          1 4.100000e-01 2.350000e+00
SC1          SC5          1 4.100000e-01 2.040000e+00
SC1          SC6          1 4.100000e-01 1.910000e+00
SC1          SN4a         1 4.100000e-01 1.750000e+00
SC1          SN6d_10.6F   1 4.100000e-01 1.750000e+00   ; SYNTH parent SC1xSN6d
SC1          SN6d_10.6R   1 4.100000e-01 1.750000e+00   ; SYNTH parent SC1xSN6d
SC1          SN6d_4.8     1 4.100000e-01 1.750000e+00   ; SYNTH parent SC1xSN6d
SC1          SN6d_6.0     1 4.100000e-01 1.750000e+00   ; SYNTH parent SC1xSN6d
SC1          SP1          1 4.140000e-01 1.560000e+00
SC1          SX2          1 4.100000e-01 2.200000e+00
SC1          TC1          1 3.650000e-01 1.910000e+00
SC1          TC2          1 3.650000e-01 2.110000e+00
SC1          TC4          1 3.660000e-01 1.600000e+00
SC1          TC5          1 3.660000e-01 1.600000e+00
SC1          TN3d         1 3.780000e-01 1.450000e+00
SC1          WNT          1 4.370000e-01 1.420000e+00   ; SYNTH parent SC1xW
SC1          X2           1 4.300000e-01 2.770000e+00
SC2          SC2          1 4.100000E-01 2.370000E+00
SC2          SC3          1 4.100000E-01 2.370000E+00
SC2          SC5          1 4.100000E-01 2.040000E+00
SC2          SC6          1 4.100000E-01 2.040000E+00
SC2          SN4a         1 4.100000E-01 1.900000E+00
SC2          SN6d_10.6F   1 4.100000E-01 1.900000E+00
SC2          SN6d_10.6R   1 4.100000E-01 1.900000E+00
SC2          SN6d_4.8     1 4.100000E-01 1.900000E+00
SC2          SN6d_6.0     1 4.100000E-01 1.900000E+00
SC2          SP1          1 4.100000e-01 1.750000e+00
SC2          SX2          1 4.100000E-01 2.200000E+00
SC2          TC1          1 3.650000e-01 2.110000e+00
SC2          TC2          1 3.650000E-01 1.910000E+00
SC2          TC4          1 3.650000E-01 1.740000E+00
SC2          TC5          1 3.660000E-01 1.560000E+00
SC2          TN3d         1 3.790000E-01 1.360000E+00
SC2          WNT          1 4.250000E-01 1.710000E+00
SC2          X2           1 4.300000E-01 2.780000E+00
SC3          SC3          1 4.100000E-01 2.370000E+00
SC3          SC5          1 4.100000E-01 2.200000E+00
SC3          SC6          1 4.100000E-01 2.200000E+00
SC3          SN4a         1 4.100000E-01 2.040000E+00
SC3          SN6d_10.6F   1 4.100000E-01 1.900000E+00
SC3          SN6d_10.6R   1 4.100000E-01 1.900000E+00
SC3          SN6d_4.8     1 4.100000E-01 1.900000E+00
SC3          SN6d_6.0     1 4.100000E-01 1.900000E+00
SC3          SP1          1 4.100000e-01 1.750000e+00
SC3          SX2          1 4.100000E-01 2.200000E+00
SC3          TC1          1 3.650000e-01 1.910000e+00
SC3          TC2          1 3.650000E-01 1.910000E+00
SC3          TC4          1 3.650000E-01 1.910000E+00
SC3          TC5          1 3.650000E-01 1.740000E+00
SC3          TN3d         1 3.660000E-01 1.560000E+00
SC3          WNT          1 4.250000E-01 1.820000E+00
SC3          X2           1 4.300000E-01 2.780000E+00
SC5          SC5          1 4.100000E-01 2.370000E+00
SC5          SC6          1 4.100000E-01 2.370000E+00
SC5          SN4a         1 4.100000E-01 2.200000E+00
SC5          SN6d_10.6F   1 4.100000E-01 2.200000E+00
SC5          SN6d_10.6R   1 4.100000E-01 2.200000E+00
SC5          SN6d_4.8     1 4.100000E-01 2.200000E+00
SC5          SN6d_6.0     1 4.100000E-01 2.200000E+00
SC5          SP1          1 4.100000e-01 2.040000e+00
SC5          SX2          1 4.100000E-01 2.200000E+00
SC5          TC1          1 3.660000e-01 1.600000e+00
SC5          TC2          1 3.660000E-01 1.560000E+00
SC5          TC4          1 3.650000E-01 1.910000E+00
SC5          TC5          1 3.650000E-01 1.910000E+00
SC5          TN3d         1 3.650000E-01 1.740000E+00
SC5          WNT          1 4.250000E-01 2.040000E+00
SC5          X2           1 4.300000E-01 2.780000E+00
SC6          SC6          1 4.100000E-01 2.600000E+00
SC6          SN4a         1 4.100000E-01 2.370000E+00
SC6          SN6d_10.6F   1 4.100000E-01 2.370000E+00
SC6          SN6d_10.6R   1 4.100000E-01 2.370000E+00
SC6          SN6d_4.8     1 4.100000E-01 2.370000E+00
SC6          SN6d_6.0     1 4.100000E-01 2.370000E+00
SC6          SP1          1 4.100000e-01 2.200000e+00
SC6          SX2          1 4.100000E-01 2.370000E+00
SC6          TC1          1 3.780000e-01 1.450000e+00
SC6          TC2          1 3.660000E-01 1.560000E+00
SC6          TC4          1 3.650000E-01 1.910000E+00
SC6          TC5          1 3.650000E-01 1.910000E+00
SC6          TN3d         1 3.650000E-01 1.910000E+00
SC6          WNT          1 4.250000E-01 2.280000E+00
SC6          X2           1 4.300000E-01 2.970000E+00
SN4a         SN4a         1 4.100000E-01 2.600000E+00
SN4a         SN6d_10.6F   1 4.100000E-01 3.070000E+00
SN4a         SN6d_10.6R   1 4.100000E-01 3.070000E+00
SN4a         SN6d_4.8     1 4.100000E-01 3.070000E+00
SN4a         SN6d_6.0     1 4.100000E-01 3.070000E+00
SN4a         SP1          1 4.100000e-01 2.840000e+00
SN4a         SX2          1 4.100000E-01 2.200000E+00
SN4a         TC1          1 3.940000e-01 1.290000e+00
SN4a         TC2          1 3.790000E-01 1.360000E+00
SN4a         TC4          1 3.660000E-01 1.560000E+00
SN4a         TC5          1 3.650000E-01 1.740000E+00
SN4a         TN3d         1 3.650000E-01 2.340000E+00
SN4a         WNT          1 4.250000E-01 2.980000E+00
SN4a         X2           1 4.300000E-01 2.780000E+00
SN6d_10.6F   SN6d_10.6F   1 4.100000E-01 1.000000E+00
SN6d_10.6F   SN6d_10.6R   1 4.100000E-01 1.000000E+00
SN6d_10.6F   SN6d_4.8     1 4.100000E-01 1.000000E+00
SN6d_10.6F   SN6d_6.0     1 4.100000E-01 1.000000E+00
SN6d_10.6F   SP1          1 4.100000e-01 3.070000e+00   ; SYNTH parent SN6dxSP1
SN6d_10.6F   SX2          1 4.100000E-01 2.040000E+00
SN6d_10.6F   TC1          1 3.940000e-01 1.290000e+00   ; SYNTH parent SN6dxTC1
SN6d_10.6F   TC2          1 3.790000E-01 1.360000E+00
SN6d_10.6F   TC4          1 3.660000E-01 1.560000E+00
SN6d_10.6F   TC5          1 3.650000E-01 1.740000E+00
SN6d_10.6F   TN3d         1 3.650000E-01 1.740000E+00
SN6d_10.6F   WNT          1 4.250000E-01 5.000000E-01
SN6d_10.6F   X2           1 4.300000E-01 2.530000E+00
SN6d_10.6R   SN6d_10.6R   1 4.100000E-01 1.000000E+00
SN6d_10.6R   SN6d_4.8     1 4.100000E-01 1.000000E+00
SN6d_10.6R   SN6d_6.0     1 4.100000E-01 1.000000E+00
SN6d_10.6R   SP1          1 4.100000e-01 3.070000e+00   ; SYNTH parent SN6dxSP1
SN6d_10.6R   SX2          1 4.100000E-01 2.040000E+00
SN6d_10.6R   TC1          1 3.940000e-01 1.290000e+00   ; SYNTH parent SN6dxTC1
SN6d_10.6R   TC2          1 3.790000E-01 1.360000E+00
SN6d_10.6R   TC4          1 3.660000E-01 1.560000E+00
SN6d_10.6R   TC5          1 3.650000E-01 1.740000E+00
SN6d_10.6R   TN3d         1 3.650000E-01 1.740000E+00
SN6d_10.6R   WNT          1 4.250000E-01 3.200000E+00
SN6d_10.6R   X2           1 4.300000E-01 2.530000E+00
SN6d_4.8     SN6d_4.8     1 4.100000E-01 1.000000E+00
SN6d_4.8     SN6d_6.0     1 4.100000E-01 1.000000E+00
SN6d_4.8     SP1          1 4.100000e-01 3.070000e+00   ; SYNTH parent SN6dxSP1
SN6d_4.8     SX2          1 4.100000E-01 2.040000E+00
SN6d_4.8     TC1          1 3.940000e-01 1.290000e+00   ; SYNTH parent SN6dxTC1
SN6d_4.8     TC2          1 3.790000E-01 1.360000E+00
SN6d_4.8     TC4          1 3.660000E-01 1.560000E+00
SN6d_4.8     TC5          1 3.650000E-01 1.740000E+00
SN6d_4.8     TN3d         1 3.650000E-01 1.740000E+00
SN6d_4.8     WNT          1 4.250000E-01 1.950000E+00
SN6d_4.8     X2           1 4.300000E-01 2.530000E+00
SN6d_6.0     SN6d_6.0     1 4.100000E-01 1.000000E+00
SN6d_6.0     SP1          1 4.100000e-01 3.070000e+00   ; SYNTH parent SN6dxSP1
SN6d_6.0     SX2          1 4.100000E-01 2.040000E+00
SN6d_6.0     TC1          1 3.940000e-01 1.290000e+00   ; SYNTH parent SN6dxTC1
SN6d_6.0     TC2          1 3.790000E-01 1.360000E+00
SN6d_6.0     TC4          1 3.660000E-01 1.560000E+00
SN6d_6.0     TC5          1 3.650000E-01 1.740000E+00
SN6d_6.0     TN3d         1 3.650000E-01 1.740000E+00
SN6d_6.0     WNT          1 4.250000E-01 2.350000E+00
SN6d_6.0     X2           1 4.300000E-01 2.530000E+00
SP1          SP1          1 4.100000e-01 3.070000e+00
SP1          SX2          1 4.100000e-01 2.040000e+00
SP1          TC1          1 4.040000e-01 1.130000e+00
SP1          TC2          1 3.940000e-01 1.290000e+00
SP1          TC4          1 3.780000e-01 1.450000e+00
SP1          TC5          1 3.660000e-01 1.600000e+00
SP1          TN3d         1 3.650000e-01 1.910000e+00
SP1          WNT          1 4.250000e-01 3.830000e+00   ; SYNTH parent SP1xW
SP1          X2           1 4.300000e-01 2.530000e+00
SX2          SX2          1 4.100000E-01 2.600000E+00
SX2          TC1          1 3.650000e-01 1.750000e+00
SX2          TC2          1 3.650000E-01 1.740000E+00
SX2          TC4          1 3.650000E-01 1.740000E+00
SX2          TC5          1 3.650000E-01 1.740000E+00
SX2          TN3d         1 3.650000E-01 1.740000E+00
SX2          WNT          1 4.250000E-01 1.820000E+00
SX2          X2           1 4.300000E-01 3.170000E+00
TC1          TC1          1 3.400000e-01 1.510000e+00
TC1          TC2          1 3.400000e-01 1.770000e+00
TC1          TC4          1 3.520000e-01 1.050000e+00
TC1          TC5          1 3.520000e-01 1.050000e+00
TC1          TN3d         1 3.660000e-01 9.350000e-01
TC1          WNT          1 4.150000e-01 5.500000e-01   ; SYNTH parent TC1xW
TC1          X2           1 3.950000e-01 2.110000e+00
TC2          TC2          1 3.400000E-01 1.510000E+00
TC2          TC4          1 3.400000E-01 1.290000E+00
TC2          TC5          1 3.500000E-01 1.060000E+00
TC2          TN3d         1 3.640000E-01 9.350000E-01
TC2          WNT          1 3.970000E-01 9.200000E-01
TC2          X2           1 3.950000E-01 2.100000E+00
TC4          TC4          1 3.400000E-01 1.510000E+00
TC4          TC5          1 3.400000E-01 1.510000E+00
TC4          TN3d         1 3.500000E-01 1.060000E+00
TC4          WNT          1 3.930000E-01 1.120000E+00
TC4          X2           1 3.950000E-01 2.100000E+00
TC5          TC5          1 3.400000E-01 1.510000E+00
TC5          TN3d         1 3.400000E-01 1.290000E+00
TC5          WNT          1 3.870000E-01 1.360000E+00
TC5          X2           1 3.950000E-01 2.100000E+00
TN3d         TN3d         1 3.400000E-01 1.510000E+00
TN3d         WNT          1 3.850000E-01 2.420000E+00
TN3d         X2           1 3.950000E-01 2.100000E+00
WNT          WNT          1 4.700000E-01 2.230000E+00
WNT          X2           1 4.650000E-01 2.390000E+00
X2           X2           1 4.700000E-01 3.530000E+00

