; martini_titratable_full.itp — AUTO-GENERATED by physics_design/build_titratable_ff.py
; Titratable Martini 3 FF for IAJD apparent-pKa (Module A). INLINE: standard Martini 3
; std x std (IAJD-body palette) + parent-synthesized titratable x IAJD-bead cross terms.
; #INCLUDE: the Grunewald titratable extensions — pH_dep_interactions.itp is included (NOT
; flattened) so its #ifdef pH<value> blocks stay conditional (the pH response). The
; including system.top sets `#define pH<value>` BEFORE this file, selecting the pH block.
; Beads=41  inline_pairs=184 (synth=61)  include_covered=447
; DO NOT EDIT BY HAND — regenerate: python -m physics_design.build_titratable_ff

[ defaults ]
1 2

[ atomtypes ]
C1           72.0 0.000 A 0.0 0.0
C4           72.0 0.000 A 0.0 0.0
C4h          72.0 0.000 A 0.0 0.0
DA1          24.0 0.000 A 0.0 0.0
DA2          24.0 0.000 A 0.0 0.0
DB1          24.0 0.000 A 0.0 0.0
DB2          24.0 0.000 A 0.0 0.0
DB3          24.0 0.000 A 0.0 0.0
DB4          24.0 0.000 A 0.0 0.0
DW           24.0 0.000 A 0.0 0.0
N2_10.2      24.0 0.000 A 0.0 0.0
N4a          72.0 0.000 A 0.0 0.0
N5a          72.0 0.000 A 0.0 0.0
N5d_10.8F    24.0 0.000 A 0.0 0.0
N5d_10.8R    24.0 0.000 A 0.0 0.0
N6d          72.0 0.000 A 0.0 0.0
P1           72.0 0.000 A 0.0 0.0
P2_4.0       24.0 0.000 A 0.0 0.0
P2_4.8       24.0 0.000 A 0.0 0.0
POS          24.0 0.000 A 0.0 0.0
Q1p          72.0 0.000 A 0.0 0.0
Q5n          72.0 0.000 A 0.0 0.0
SC1          54.0 0.000 A 0.0 0.0
SC2          54.0 0.000 A 0.0 0.0
SC3          54.0 0.000 A 0.0 0.0
SC5          54.0 0.000 A 0.0 0.0
SC6          54.0 0.000 A 0.0 0.0
SN4a         54.0 0.000 A 0.0 0.0
SN6d_10.6F   24.0 0.000 A 0.0 0.0
SN6d_10.6R   24.0 0.000 A 0.0 0.0
SN6d_4.8     24.0 0.000 A 0.0 0.0
SN6d_6.0     24.0 0.000 A 0.0 0.0
SP1          54.0 0.000 A 0.0 0.0
SX2          54.0 0.000 A 0.0 0.0
TC1          36.0 0.000 A 0.0 0.0
TC2          36.0 0.000 A 0.0 0.0
TC4          36.0 0.000 A 0.0 0.0
TC5          36.0 0.000 A 0.0 0.0
TN3d         36.0 0.000 A 0.0 0.0
WNT          24.0 0.000 A 0.0 0.0
X2           72.0 0.000 A 0.0 0.0

[ nonbond_params ]
; --- standard Martini 3 (std x std) + synthesized titratable x IAJD-body ---
C1           N5a          1 4.700000e-01 2.790000e+00
C1           N6d          1 4.700000e-01 2.790000e+00
C1           P1           1 4.700000e-01 2.620000e+00
C1           SC1          1 4.300000e-01 2.920000e+00
C1           SP1          1 4.300000e-01 1.930000e+00
C1           TC1          1 3.950000e-01 2.310000e+00
C4           N5a          1 4.700000e-01 3.070000e+00
C4           N6d          1 4.700000e-01 3.070000e+00
C4           P1           1 4.700000e-01 2.960000e+00
C4           SC1          1 4.300000e-01 2.530000e+00
C4           SP1          1 4.300000e-01 2.320000e+00
C4           TC1          1 3.950000e-01 1.850000e+00
C4h          N5a          1 4.700000e-01 3.070000e+00
C4h          N6d          1 4.700000e-01 3.070000e+00
C4h          P1           1 4.700000e-01 2.960000e+00
C4h          SC1          1 4.300000e-01 2.530000e+00
C4h          SP1          1 4.300000e-01 2.320000e+00
C4h          TC1          1 3.950000e-01 1.850000e+00
N2_10.2      N5a          1 4.700000e-01 3.520000e+00   ; SYNTH parent N2xN5a
N2_10.2      N6d          1 4.700000e-01 3.390000e+00   ; SYNTH parent N2xN6d
N2_10.2      P1           1 4.700000e-01 3.390000e+00   ; SYNTH parent N2xP1
N2_10.2      SC1          1 4.300000e-01 2.320000e+00   ; SYNTH parent N2xSC1
N2_10.2      SP1          1 4.300000e-01 2.920000e+00   ; SYNTH parent N2xSP1
N2_10.2      TC1          1 3.950000e-01 1.670000e+00   ; SYNTH parent N2xTC1
N4a          N5a          1 4.700000e-01 3.390000e+00
N4a          N6d          1 4.700000e-01 3.880000e+00
N4a          P1           1 4.700000e-01 3.690000e+00
N4a          SC1          1 4.300000e-01 2.160000e+00
N4a          SP1          1 4.300000e-01 3.380000e+00
N4a          TC1          1 3.980000e-01 1.450000e+00
N5a          N5a          1 4.700000e-01 3.390000e+00
N5a          N5d_10.8F    1 4.700000e-01 3.690000e+00   ; SYNTH parent N5axN5d
N5a          N5d_10.8R    1 4.700000e-01 3.690000e+00   ; SYNTH parent N5axN5d
N5a          N6d          1 4.700000e-01 3.880000e+00
N5a          P1           1 4.700000e-01 3.690000e+00
N5a          P2_4.0       1 4.700000e-01 3.690000e+00   ; SYNTH parent N5axP2
N5a          P2_4.8       1 4.700000e-01 3.690000e+00   ; SYNTH parent N5axP2
N5a          Q1p          1 4.700000e-01 4.921000e+00
N5a          Q5n          1 4.700000e-01 4.530000e+00
N5a          SC1          1 4.300000e-01 2.160000e+00
N5a          SC2          1 4.300000e-01 2.320000e+00
N5a          SC3          1 4.300000e-01 2.530000e+00
N5a          SC5          1 4.300000e-01 2.770000e+00
N5a          SC6          1 4.300000e-01 2.920000e+00
N5a          SN4a         1 4.300000e-01 2.930000e+00
N5a          SN6d_10.6F   1 4.300000e-01 3.590000e+00   ; SYNTH parent N5axSN6d
N5a          SN6d_10.6R   1 4.300000e-01 3.590000e+00   ; SYNTH parent N5axSN6d
N5a          SN6d_4.8     1 4.300000e-01 3.590000e+00   ; SYNTH parent N5axSN6d
N5a          SN6d_6.0     1 4.300000e-01 3.590000e+00   ; SYNTH parent N5axSN6d
N5a          SP1          1 4.300000e-01 3.380000e+00
N5a          SX2          1 4.300000e-01 2.770000e+00
N5a          TC1          1 3.980000e-01 1.450000e+00
N5a          TC2          1 3.950000e-01 1.670000e+00
N5a          TC4          1 3.950000e-01 1.850000e+00
N5a          TC5          1 3.950000e-01 2.110000e+00
N5a          TN3d         1 3.950000e-01 2.700000e+00
N5a          WNT          1 4.650000e-01 3.700000e+00   ; SYNTH parent N5axW
N5a          X2           1 4.700000e-01 3.240000e+00
N5d_10.8F    N6d          1 4.700000e-01 3.520000e+00   ; SYNTH parent N5dxN6d
N5d_10.8F    P1           1 4.700000e-01 3.690000e+00   ; SYNTH parent N5dxP1
N5d_10.8F    SC1          1 4.300000e-01 2.160000e+00   ; SYNTH parent N5dxSC1
N5d_10.8F    SP1          1 4.300000e-01 3.380000e+00   ; SYNTH parent N5dxSP1
N5d_10.8F    TC1          1 3.980000e-01 1.450000e+00   ; SYNTH parent N5dxTC1
N5d_10.8R    N6d          1 4.700000e-01 3.520000e+00   ; SYNTH parent N5dxN6d
N5d_10.8R    P1           1 4.700000e-01 3.690000e+00   ; SYNTH parent N5dxP1
N5d_10.8R    SC1          1 4.300000e-01 2.160000e+00   ; SYNTH parent N5dxSC1
N5d_10.8R    SP1          1 4.300000e-01 3.380000e+00   ; SYNTH parent N5dxSP1
N5d_10.8R    TC1          1 3.980000e-01 1.450000e+00   ; SYNTH parent N5dxTC1
N6d          N6d          1 4.700000e-01 3.520000e+00
N6d          P1           1 4.700000e-01 3.880000e+00
N6d          P2_4.0       1 4.700000e-01 3.880000e+00   ; SYNTH parent N6dxP2
N6d          P2_4.8       1 4.700000e-01 3.880000e+00   ; SYNTH parent N6dxP2
N6d          Q1p          1 4.700000e-01 4.556000e+00
N6d          Q5n          1 4.700000e-01 5.391000e+00
N6d          SC1          1 4.300000e-01 2.160000e+00
N6d          SC2          1 4.300000e-01 2.320000e+00
N6d          SC3          1 4.300000e-01 2.320000e+00
N6d          SC5          1 4.300000e-01 2.770000e+00
N6d          SC6          1 4.300000e-01 2.920000e+00
N6d          SN4a         1 4.300000e-01 3.590000e+00
N6d          SN6d_10.6F   1 4.300000e-01 3.160000e+00   ; SYNTH parent N6dxSN6d
N6d          SN6d_10.6R   1 4.300000e-01 3.160000e+00   ; SYNTH parent N6dxSN6d
N6d          SN6d_4.8     1 4.300000e-01 3.160000e+00   ; SYNTH parent N6dxSN6d
N6d          SN6d_6.0     1 4.300000e-01 3.160000e+00   ; SYNTH parent N6dxSN6d
N6d          SP1          1 4.300000e-01 3.590000e+00
N6d          SX2          1 4.300000e-01 2.530000e+00
N6d          TC1          1 3.980000e-01 1.450000e+00
N6d          TC2          1 3.950000e-01 1.670000e+00
N6d          TC4          1 3.950000e-01 1.850000e+00
N6d          TC5          1 3.950000e-01 2.110000e+00
N6d          TN3d         1 3.950000e-01 2.310000e+00
N6d          WNT          1 4.650000e-01 3.950000e+00   ; SYNTH parent N6dxW
N6d          X2           1 4.700000e-01 3.070000e+00
P1           P1           1 4.700000e-01 3.880000e+00
P1           P2_4.0       1 4.700000e-01 3.880000e+00   ; SYNTH parent P1xP2
P1           P2_4.8       1 4.700000e-01 3.880000e+00   ; SYNTH parent P1xP2
P1           Q1p          1 4.700000e-01 4.929000e+00
P1           Q5n          1 4.700000e-01 5.400000e+00
P1           SC1          1 4.300000e-01 1.930000e+00
P1           SC2          1 4.300000e-01 2.160000e+00
P1           SC3          1 4.300000e-01 2.160000e+00
P1           SC5          1 4.300000e-01 2.530000e+00
P1           SC6          1 4.300000e-01 2.770000e+00
P1           SN4a         1 4.300000e-01 3.380000e+00
P1           SN6d_10.6F   1 4.300000e-01 3.590000e+00   ; SYNTH parent P1xSN6d
P1           SN6d_10.6R   1 4.300000e-01 3.590000e+00   ; SYNTH parent P1xSN6d
P1           SN6d_4.8     1 4.300000e-01 3.590000e+00   ; SYNTH parent P1xSN6d
P1           SN6d_6.0     1 4.300000e-01 3.590000e+00   ; SYNTH parent P1xSN6d
P1           SP1          1 4.300000e-01 3.590000e+00
P1           SX2          1 4.300000e-01 2.530000e+00
P1           TC1          1 3.990000e-01 1.180000e+00
P1           TC2          1 3.980000e-01 1.450000e+00
P1           TC4          1 3.950000e-01 1.670000e+00
P1           TC5          1 3.950000e-01 1.850000e+00
P1           TN3d         1 3.950000e-01 2.310000e+00
P1           WNT          1 4.650000e-01 4.140000e+00   ; SYNTH parent P1xW
P1           X2           1 4.700000e-01 3.070000e+00
P2_4.0       SC1          1 4.300000e-01 1.930000e+00   ; SYNTH parent P2xSC1
P2_4.0       SP1          1 4.300000e-01 3.590000e+00   ; SYNTH parent P2xSP1
P2_4.0       TC1          1 3.990000e-01 1.180000e+00   ; SYNTH parent P2xTC1
P2_4.0       WNT          1 4.650000e-01 4.330000e+00   ; SYNTH parent P2xW
P2_4.8       SC1          1 4.300000e-01 1.930000e+00   ; SYNTH parent P2xSC1
P2_4.8       SP1          1 4.300000e-01 3.590000e+00   ; SYNTH parent P2xSP1
P2_4.8       TC1          1 3.990000e-01 1.180000e+00   ; SYNTH parent P2xTC1
Q1p          SC1          1 4.300000e-01 1.972000e+00
Q1p          SP1          1 4.300000e-01 4.443000e+00
Q1p          TC1          1 4.010000e-01 1.227000e+00
Q5n          SC1          1 5.520000e-01 1.066000e+00
Q5n          SP1          1 4.300000e-01 4.839000e+00
Q5n          TC1          1 5.240000e-01 6.450000e-01
SC1          SC1          1 4.100000e-01 2.350000e+00
SC1          SC2          1 4.100000e-01 2.600000e+00
SC1          SC3          1 4.100000e-01 2.350000e+00
SC1          SC5          1 4.100000e-01 2.040000e+00
SC1          SC6          1 4.100000e-01 1.910000e+00
SC1          SN4a         1 4.100000e-01 1.750000e+00
SC1          SN6d_10.6F   1 4.100000e-01 1.750000e+00   ; SYNTH parent SC1xSN6d
SC1          SN6d_10.6R   1 4.100000e-01 1.750000e+00   ; SYNTH parent SC1xSN6d
SC1          SN6d_4.8     1 4.100000e-01 1.750000e+00   ; SYNTH parent SC1xSN6d
SC1          SN6d_6.0     1 4.100000e-01 1.750000e+00   ; SYNTH parent SC1xSN6d
SC1          SP1          1 4.140000e-01 1.560000e+00
SC1          SX2          1 4.100000e-01 2.200000e+00
SC1          TC1          1 3.650000e-01 1.910000e+00
SC1          TC2          1 3.650000e-01 2.110000e+00
SC1          TC4          1 3.660000e-01 1.600000e+00
SC1          TC5          1 3.660000e-01 1.600000e+00
SC1          TN3d         1 3.780000e-01 1.450000e+00
SC1          WNT          1 4.370000e-01 1.420000e+00   ; SYNTH parent SC1xW
SC1          X2           1 4.300000e-01 2.770000e+00
SC2          SP1          1 4.100000e-01 1.750000e+00
SC2          TC1          1 3.650000e-01 2.110000e+00
SC3          SP1          1 4.100000e-01 1.750000e+00
SC3          TC1          1 3.650000e-01 1.910000e+00
SC5          SP1          1 4.100000e-01 2.040000e+00
SC5          TC1          1 3.660000e-01 1.600000e+00
SC6          SP1          1 4.100000e-01 2.200000e+00
SC6          TC1          1 3.780000e-01 1.450000e+00
SN4a         SP1          1 4.100000e-01 2.840000e+00
SN4a         TC1          1 3.940000e-01 1.290000e+00
SN6d_10.6F   SP1          1 4.100000e-01 3.070000e+00   ; SYNTH parent SN6dxSP1
SN6d_10.6F   TC1          1 3.940000e-01 1.290000e+00   ; SYNTH parent SN6dxTC1
SN6d_10.6R   SP1          1 4.100000e-01 3.070000e+00   ; SYNTH parent SN6dxSP1
SN6d_10.6R   TC1          1 3.940000e-01 1.290000e+00   ; SYNTH parent SN6dxTC1
SN6d_4.8     SP1          1 4.100000e-01 3.070000e+00   ; SYNTH parent SN6dxSP1
SN6d_4.8     TC1          1 3.940000e-01 1.290000e+00   ; SYNTH parent SN6dxTC1
SN6d_6.0     SP1          1 4.100000e-01 3.070000e+00   ; SYNTH parent SN6dxSP1
SN6d_6.0     TC1          1 3.940000e-01 1.290000e+00   ; SYNTH parent SN6dxTC1
SP1          SP1          1 4.100000e-01 3.070000e+00
SP1          SX2          1 4.100000e-01 2.040000e+00
SP1          TC1          1 4.040000e-01 1.130000e+00
SP1          TC2          1 3.940000e-01 1.290000e+00
SP1          TC4          1 3.780000e-01 1.450000e+00
SP1          TC5          1 3.660000e-01 1.600000e+00
SP1          TN3d         1 3.650000e-01 1.910000e+00
SP1          WNT          1 4.250000e-01 3.830000e+00   ; SYNTH parent SP1xW
SP1          X2           1 4.300000e-01 2.530000e+00
SX2          TC1          1 3.650000e-01 1.750000e+00
TC1          TC1          1 3.400000e-01 1.510000e+00
TC1          TC2          1 3.400000e-01 1.770000e+00
TC1          TC4          1 3.520000e-01 1.050000e+00
TC1          TC5          1 3.520000e-01 1.050000e+00
TC1          TN3d         1 3.660000e-01 9.350000e-01
TC1          WNT          1 4.150000e-01 5.500000e-01   ; SYNTH parent TC1xW
TC1          X2           1 3.950000e-01 2.110000e+00
; --- Grunewald titratable extensions (#ifdef pH<value> preserved in pH_dep) ---
#include "dummy_beads.itp"
#include "neutral_beads.itp"
#include "charged_beads.itp"
#include "titratable_beads_self_proton.itp"
#include "pH_dep_interactions.itp"

